       3
 i =        1, E =       -17.1640993833
  O        -0.0048829283       -0.0080329349        0.0000000130
  H        -0.0014379344        0.0073039092       -0.0000000021
  H         0.0075308693        0.0008401974        0.0000000049
       3
 i =        2, E =       -17.1643497505
  O        -0.0044067484       -0.0062272334        0.0000000113
  H        -0.0001542719        0.0056952871        0.0000000002
  H         0.0057530047        0.0009991134        0.0000000034
       3
 i =        3, E =       -17.1645747272
  O         0.0112336779       -0.0069290392        0.0000000327
  H        -0.0082892760       -0.0003763473       -0.0000000111
  H        -0.0023945078        0.0080273813       -0.0000000072
       3
 i =        4, E =       -17.1646028416
  O        -0.0061728498        0.0083732928       -0.0000000025
  H         0.0062715218       -0.0010407979        0.0000000108
  H         0.0005819338       -0.0065309081        0.0000000032
       3
 i =        5, E =       -17.1647107450
  O         0.0002373951        0.0004788393        0.0000000119
  H         0.0002821549        0.0002229405        0.0000000007
  H         0.0002431620        0.0001326786       -0.0000000001
       3
 i =        6, E =       -17.1647112777
  O         0.0002986550        0.0003007369        0.0000000113
  H         0.0002653488        0.0002387414        0.0000000007
  H         0.0002092690        0.0002953522       -0.0000000003
       3
 i =        7, E =       -17.1647112776
  O         0.0002986550        0.0003007369        0.0000000113
  H         0.0002653488        0.0002387414        0.0000000007
  H         0.0002092690        0.0002953522       -0.0000000003
