#     Step Nr.          Time[fs]        Kin.[a.u.]          Temp[K]            Pot.[a.u.]        Cons Qty[a.u.]        UsedTime[s]
         0            0.000000         4.886025253       202.877436393       -92.460176074       -87.572535116         0.000000000
         1            0.500000         4.961323018       206.003948611       -92.539824852       -87.577033661         8.851875415
         2            1.000000         5.148291295       213.767241402       -92.728607973       -87.583702092         0.783165921
         3            1.500000         5.365136854       222.771098079       -92.932859812       -87.586276643         0.774483902
         4            2.000000         5.566532530       231.133445059       -93.116644054       -87.584768281         0.816632986
         5            2.500000         5.765934004       239.412988823       -93.307212807       -87.584134944         0.802308490
         6            3.000000         5.982979310       248.425139379       -93.518018381       -87.588081255         0.794831926
         7            3.500000         6.158101226       255.696547841       -93.690730541       -87.594821826         0.827072703
         8            4.000000         6.203624182       257.586751070       -93.728102531       -87.597384207         0.813578904
         9            4.500000         6.065487825       251.851056197       -93.589212671       -87.593554929         0.789041924
        10            5.000000         5.822174278       241.748196282       -93.328934158       -87.586713366         0.817700712
        11            5.500000         5.547103476       230.326712304       -93.043816608       -87.583765117         0.843268463
        12            6.000000         5.304185338       220.240270551       -92.783998532       -87.584831648         0.839349165
        13            6.500000         5.075041348       210.725758674       -92.540407342       -87.585650770         0.827695932
        14            7.000000         4.876226182       202.470559600       -92.308124936       -87.582123108         0.792914195
        15            7.500000         4.735847859       196.641773843       -92.144979360       -87.575723422         0.797733300
        16            8.000000         4.727392658       196.290697185       -92.145862694       -87.573216974         0.812764164
        17            8.500000         4.892903838       203.163048865       -92.348182487       -87.577412857         0.866428218
        18            9.000000         5.203472632       216.058479715       -92.687168863       -87.585136252         0.820175544
        19            9.500000         5.541722596       230.103287501       -93.045752372       -87.589861753         1.065170921
        20           10.000000         5.834785204       242.271826881       -93.348292250       -87.589377308         0.827080486
        21           10.500000         6.103157721       253.415184808       -93.592927241       -87.587485276         0.786789181
        22           11.000000         6.322518280       262.523469265       -93.795063814       -87.589489302         0.805675707
        23           11.500000         6.463237719       268.366418795       -93.920012731       -87.594214746         0.779558579
        24           12.000000         6.450220990       267.825938477       -93.899692358       -87.595977174         0.844231846
        25           12.500000         6.259631901       259.912302359       -93.713395210       -87.591213656         0.812671669
        26           13.000000         5.986532682       248.572682415       -93.434697201       -87.583333467         0.794193658
        27           13.500000         5.726090440       237.758605207       -93.179989362       -87.579043458         0.817769000
        28           14.000000         5.547872993       230.358664153       -93.012328783       -87.581183850         0.823242224
        29           14.500000         5.442822164       225.996745868       -92.906943284       -87.584023343         0.843981092
        30           15.000000         5.380471066       223.407804927       -92.820212525       -87.583071129         0.813699702
        31           15.500000         5.362718721       222.670692438       -92.765081573       -87.578639621         0.837256583
        32           16.000000         5.445327039       226.100753245       -92.806773713       -87.576356394         0.779237245
        33           16.500000         5.611855372       233.015339138       -92.979857429       -87.579808829         1.057561108
        34           17.000000         5.855819642       243.145218341       -93.233297538       -87.586528641         0.808585108
        35           17.500000         6.103905717       253.446243084       -93.470073449       -87.590552134         0.813357723
        36           18.000000         6.271245904       260.394538762       -93.632885200       -87.589048186         0.809860557
        37           18.500000         6.387867764       265.236909128       -93.739946962       -87.587027281         0.796348960
        38           19.000000         6.467913284       268.560557513       -93.822659735       -87.588917629         0.814162729
        39           19.500000         6.487694573       269.381915797       -93.854576758       -87.593781261         0.815017279
        40           20.000000         6.393435980       265.468112473       -93.762994307       -87.596305958         0.813950334
        41           20.500000         6.151402456       255.418401657       -93.510489825       -87.592048880         0.814803011
        42           21.000000         5.811109890       241.288781004       -93.156633692       -87.584443158         0.791397737
        43           21.500000         5.482939191       227.662484203       -92.818266937       -87.579147943         0.869260664
        44           22.000000         5.248830194       217.941815438       -92.580551076       -87.579162242         0.785268522
        45           22.500000         5.120790894       212.625370373       -92.449838134       -87.581590715         0.810157034
        46           23.000000         5.075506921       210.745090206       -92.396712650       -87.581722053         0.813092247
        47           23.500000         5.103071387       211.889621361       -92.425154135       -87.578835754         0.844691338
        48           24.000000         5.248752710       217.938598144       -92.577658154       -87.577661610         0.815705819
        49           24.500000         5.516030475       229.036499817       -92.869091521       -87.581839466         0.822270032
        50           25.000000         5.860154750       243.325220620       -93.234527601       -87.589456753         1.079600543
        51           25.500000         6.160802589       255.808713775       -93.558524957       -87.594501939         0.798731468
        52           26.000000         6.389282241       265.295641019       -93.762359834       -87.594105397         0.793949793
        53           26.500000         6.508624530       270.250969019       -93.851640036       -87.590467100         0.792622297
        54           27.000000         6.557239424       272.269555613       -93.874004894       -87.589441254         0.832472976
        55           27.500000         6.550993861       272.010227453       -93.842275086       -87.591823862         0.779525731
        56           28.000000         6.446364419       267.665806006       -93.721837355       -87.593571938         0.833911051
        57           28.500000         6.217128091       258.147460088       -93.491393243       -87.590295392         0.849512291
        58           29.000000         5.943550916       246.787994439       -93.203505847       -87.583647280         0.812833903
        59           29.500000         5.714726908       237.286768873       -92.961549601       -87.579213331         0.802877383
        60           30.000000         5.601176033       232.571911855       -92.835934813       -87.579937220         0.802658088
        61           30.500000         5.597775862       232.430730042       -92.816016099       -87.583123300         0.794737647
        62           31.000000         5.643073452       234.311575588       -92.851298139       -87.583613652         0.777670076
        63           31.500000         5.736302699       238.182638404       -92.927426003       -87.581003056         0.797535821
        64           32.000000         5.888419587       244.498832591       -93.078161811       -87.579472045         1.045970280
        65           32.500000         6.106419681       253.550627834       -93.322187202       -87.582921723         0.794658572
        66           33.000000         6.345832239       263.491510962       -93.604209648       -87.589587424         0.814599205
        67           33.500000         6.544138631       271.725584734       -93.821559914       -87.594161365         0.804229442
        68           34.000000         6.640436073       275.724045089       -93.907214843       -87.593424356         0.764927836
        69           34.500000         6.626336588       275.138606586       -93.876867469       -87.589233423         0.783069330
        70           35.000000         6.563633734       272.535060004       -93.789557461       -87.587702136         0.812865332
        71           35.500000         6.453256518       267.951979583       -93.667678614       -87.589570216         0.834543571
        72           36.000000         6.295087517       261.384489689       -93.481304404       -87.590840543         0.794049449
        73           36.500000         6.036716041       250.656394804       -93.209342836       -87.587137634         0.822645397
        74           37.000000         5.743808297       238.494285661       -92.901117751       -87.580279232         0.823989945
        75           37.500000         5.512297474       228.881498224       -92.656255279       -87.575357306         0.807515358
        76           38.000000         5.405148417       224.432457351       -92.547125183       -87.576042868         0.817954923
        77           38.500000         5.422904720       225.169734215       -92.565634946       -87.579577398         0.801863548
        78           39.000000         5.525414883       229.426159005       -92.658542286       -87.581680305         0.786362151
        79           39.500000         5.682748873       235.958977584       -92.797609083       -87.580312104         1.081266498
        80           40.000000         5.902425972       245.080405407       -93.003533640       -87.579098227         0.841271097
        81           40.500000         6.190750394       257.052205924       -93.290936098       -87.582342235         0.803052132
        82           41.000000         6.506374667       270.157550256       -93.610303539       -87.589443112         0.796422723
        83           41.500000         6.751989222       280.355952552       -93.857908954       -87.594374747         0.794000460
        84           42.000000         6.847915617       284.339006308       -93.958244583       -87.593246165         0.836556589
        85           42.500000         6.827965462       283.510636390       -93.921200817       -87.588536729         0.800476449
        86           43.000000         6.719568671       279.009787153       -93.811387998       -87.585663704         0.803010001
        87           43.500000         6.582717559       273.327458184       -93.673157821       -87.586861748         0.750912307
        88           44.000000         6.394916581       265.529589980       -93.497992229       -87.588558878         0.843597764
        89           44.500000         6.156027720       255.610451774       -93.272563311       -87.585909858         0.829530010
        90           45.000000         5.939018261       246.599789638       -93.039597629       -87.580188978         0.790120635
        91           45.500000         5.793945884       240.576097495       -92.887216966       -87.576291976         0.834668716
        92           46.000000         5.787118930       240.292628868       -92.873173841       -87.577984285         0.862860665
        93           46.500000         5.887582584       244.464078566       -92.971331674       -87.583058640         0.797889118
        94           47.000000         6.020755848       249.993695977       -93.106195788       -87.585648787         0.805764825
        95           47.500000         6.139739966       254.934152002       -93.235630127       -87.584205474         1.076197546
        96           48.000000         6.269649735       260.328262654       -93.378688236       -87.581643248         0.830088924
        97           48.500000         6.413442433       266.298820022       -93.563727533       -87.584381468         0.793893965
        98           49.000000         6.571950646       272.880394662       -93.754874760       -87.590271938         0.839458239
        99           49.500000         6.663717647       276.690742111       -93.866369196       -87.594604945         0.844134437
       100           50.000000         6.633153163       275.421644254       -93.837520690       -87.593536224         0.817427849
       101           50.500000         6.522650468       270.833353693       -93.689197470       -87.589445788         0.809042665
       102           51.000000         6.357868691       263.991288289       -93.490205254       -87.586553978         0.814458180
       103           51.500000         6.177281745       256.492960933       -93.285375778       -87.587644709         0.826716289
       104           52.000000         5.973732407       248.041189662       -93.062085458       -87.588719362         0.844632599
       105           52.500000         5.739679957       238.322868839       -92.804097778       -87.585820276         0.805581873
       106           53.000000         5.499266889       228.340442560       -92.554458056       -87.579902508         0.868467843
       107           53.500000         5.366114222       222.811680350       -92.404083560       -87.575783108         0.857422949
       108           54.000000         5.381608873       223.455048902       -92.416045796       -87.577315710         1.049234343
       109           54.500000         5.518791397       229.151138736       -92.566498554       -87.583255558         0.794295024
       110           55.000000         5.734286101       238.098905248       -92.769791787       -87.587822549         0.850056687
       111           55.500000         5.933140194       246.355720681       -92.961313043       -87.587561828         0.818999133
       112           56.000000         6.114738855       253.896056421       -93.142704274       -87.585986458         0.812364429
       113           56.500000         6.298300821       261.517912439       -93.338614474       -87.587176536         0.817624999
       114           57.000000         6.481192852       269.111951470       -93.529144446       -87.592015174         0.826560358
       115           57.500000         6.591725749       273.701496051       -93.640388101       -87.595604084         0.790091756
       116           58.000000         6.571376560       272.856557450       -93.614487144       -87.593652340         0.788101074
       117           58.500000         6.444908857       267.605368181       -93.472631730       -87.587974219         0.810240440
       118           59.000000         6.286366532       261.022377160       -93.294925521       -87.584186357         0.811396228
       119           59.500000         6.149789141       255.351413619       -93.138665372       -87.584790383         0.817153520
       120           60.000000         6.018669407       249.907062827       -92.994888634       -87.587449394         1.059820151
       121           60.500000         5.844342800       242.668677152       -92.828546181       -87.586398184         0.871185570
       122           61.000000         5.672844405       235.547724479       -92.657371984       -87.581052932         0.800714707
       123           61.500000         5.582608827       231.800964718       -92.560637713       -87.576589766         0.825634612
       124           62.000000         5.637301803       234.071925301       -92.604847518       -87.577420151         0.793963872
       125           62.500000         5.801536669       240.891281909       -92.773239659       -87.582912064         0.813355492
       126           63.000000         6.007067327       249.425321528       -92.980276238       -87.587745382         0.805286723
       127           63.500000         6.191262775       257.073480970       -93.155002912       -87.587164838         0.804465801
       128           64.000000         6.327253030       262.720065433       -93.297459718       -87.585121045         0.820217117
       129           64.500000         6.448591435       267.758276097       -93.435935367       -87.586428027         0.832748350
       130           65.000000         6.540697350       271.582695973       -93.554619702       -87.591641631         0.820317170
       131           65.500000         6.552431302       272.069912872       -93.582928867       -87.595873971         1.038519534
       132           66.000000         6.449073404       267.778288418       -93.466631314       -87.594478451         0.816182249
       133           66.500000         6.243394779       259.238104959       -93.236674752       -87.588823472         0.818815501
       134           67.000000         6.030603586       250.402593577       -92.988454605       -87.583535216         0.801843434
       135           67.500000         5.865610019       243.551734186       -92.798629480       -87.584564289         0.797956517
       136           68.000000         5.741883592       238.414368138       -92.663129506       -87.587358970         0.788366499
       137           68.500000         5.621578374       233.419057433       -92.541054523       -87.587214932         0.830385761
       138           69.000000         5.520388446       229.217451372       -92.431813802       -87.582868549         0.808336927
       139           69.500000         5.494628267       228.147837786       -92.396952211       -87.578788728         0.803271341
       140           70.000000         5.594532455       232.296057335       -92.495604482       -87.580028950         0.792897978
       141           70.500000         5.806514470       241.097970045       -92.709992880       -87.586162528         0.796760256
       142           71.000000         6.048649828       251.151909226       -92.951430019       -87.591670997         0.794257892
       143           71.500000         6.242956496       259.219906546       -93.141678591       -87.591715016         0.861315889
       144           72.000000         6.374966041       264.701204088       -93.276841101       -87.588597455         0.804811025
       145           72.500000         6.499588359       269.875769300       -93.399323637       -87.587598063         0.824823022
       146           73.000000         6.595688663       273.866044082       -93.516773891       -87.591257024         0.857281621
       147           73.500000         6.640722734       275.735947809       -93.570468405       -87.595862113         1.099929790
       148           74.000000         6.579097840       273.177160302       -93.494622280       -87.594869726         0.882665133
       149           74.500000         6.414240700       266.331965631       -93.300085741       -87.588257599         0.794817633
       150           75.000000         6.220656956       258.293985538       -93.077499025       -87.582019571         0.772096638
       151           75.500000         6.075471794       252.265610325       -92.914240408       -87.581277007         0.800914853
       152           76.000000         5.990241489       248.726679432       -92.820878975       -87.584848776         0.825277145
       153           76.500000         5.915844539       245.637570855       -92.749775727       -87.586579185         0.815376510
       154           77.000000         5.858944673       243.274975842       -92.679540922       -87.583571872         0.819003447
       155           77.500000         5.844401299       242.671106165       -92.657141774       -87.579716730         0.800191170
       156           78.000000         5.952123121       247.143929361       -92.743248484       -87.580172501         0.808843327
       157           78.500000         6.132147673       254.618904985       -92.929900478       -87.585862276         0.784073731
       158           79.000000         6.339941848       263.246930279       -93.131073940       -87.591591386         0.838647948
       159           79.500000         6.475203363       268.863256037       -93.261831461       -87.591839280         0.785460714
       160           80.000000         6.521139718       270.770624370       -93.313695631       -87.588349522         1.143914075
       161           80.500000         6.542683898       271.665181357       -93.334859401       -87.586622790         0.829403574
       162           81.000000         6.537637170       271.455631217       -93.348537657       -87.589640738         0.781098178
       163           81.500000         6.493755978       269.633597313       -93.309904952       -87.593956561         0.789316202
       164           82.000000         6.353738132       263.819779272       -93.158090644       -87.594052011         0.832901860
       165           82.500000         6.111257329       253.751496558       -92.899770138       -87.588210554         0.810954296
       166           83.000000         5.854242819       243.079745532       -92.626009972       -87.581869224         0.806230912
       167           83.500000         5.674693985       235.624522710       -92.434003286       -87.580587066         0.795006479
       168           84.000000         5.582472171       231.795290508       -92.346727257       -87.583926321         0.806511753
       169           84.500000         5.560712151       230.891771410       -92.319345324       -87.586109724         0.836969086
       170           85.000000         5.572500693       231.381254980       -92.318007699       -87.583991995         0.788390132
       171           85.500000         5.639901601       234.179874070       -92.369271799       -87.580533090         0.791045105
       172           86.000000         5.796441362       240.679714687       -92.521743310       -87.581101342         0.822892858
       173           86.500000         6.039351438       250.765821681       -92.765691625       -87.586595497         1.099632252
       174           87.000000         6.287553756       261.071673046       -93.014059420       -87.592902668         0.800208080
       175           87.500000         6.441401829       267.459749443       -93.171902739       -87.593880855         0.846335438
       176           88.000000         6.491584671       269.543440354       -93.221578929       -87.589655800         0.794153783
       177           88.500000         6.491954286       269.558787477       -93.222255636       -87.585615084         0.782866466
       178           89.000000         6.476768181       268.928230354       -93.228543887       -87.586392101         0.774918215
       179           89.500000         6.465624529       268.465523867       -93.223976750       -87.590190123         0.803016317
       180           90.000000         6.395035143       265.534512891       -93.148853012       -87.591022486         0.804442891
       181           90.500000         6.255405699       259.736822086       -92.986803863       -87.586665709         0.845982161
       182           91.000000         6.108097973       253.620313864       -92.802006226       -87.581093743         0.815234609
       183           91.500000         6.005682187       249.367807756       -92.680739511       -87.579596731         0.762642940
       184           92.000000         5.978260134       248.229189855       -92.647471727       -87.582745262         0.810027268
       185           92.500000         5.976641521       248.161981844       -92.654340124       -87.586111304         0.829851760
       186           93.000000         5.977729082       248.207139512       -92.656007934       -87.584932782         0.836283791
       187           93.500000         5.998813805       249.082618930       -92.674008498       -87.580558676         0.830196533
       188           94.000000         6.108084111       253.619738264       -92.770498997       -87.579574167         1.095342908
       189           94.500000         6.307839392       261.913972775       -92.958622485       -87.584141198         0.804102177
       190           95.000000         6.516316017       270.570334770       -93.165052830       -87.590733358         0.796345562
       191           95.500000         6.649358289       276.094513162       -93.288573042       -87.592545069         0.802080147
       192           96.000000         6.653973050       276.286127137       -93.293394011       -87.588359306         0.797354057
       193           96.500000         6.578979009       273.172226172       -93.227015652       -87.584480604         0.840314248
       194           97.000000         6.482756256       269.176867097       -93.145722322       -87.584974024         0.834093358
       195           97.500000         6.381464250       264.971022573       -93.048130323       -87.588262315         0.826604833
       196           98.000000         6.219095711       258.229159550       -92.891828233       -87.588779734         0.788766815
       197           98.500000         6.020064160       249.964975754       -92.671552523       -87.584161788         0.836129348
       198           99.000000         5.835477917       242.300589690       -92.456214868       -87.578298457         0.848962434
       199           99.500000         5.743872031       238.496932024       -92.335825670       -87.576024448         0.808504549
       200          100.000000         5.753390014       238.892137517       -92.339593499       -87.579393390         0.808534483
       201          100.500000         5.824824369       241.858233314       -92.415362082       -87.583528766         0.835214386
       202          101.000000         5.905320016       245.200571836       -92.498866142       -87.583398663         0.785108442
       203          101.500000         5.999910971       249.128175439       -92.585955554       -87.580286214         0.801477795
       204          102.000000         6.151445735       255.420198692       -92.720618922       -87.578908077         0.805530182
       205          102.500000         6.352386121       263.763641127       -92.920374165       -87.582632217         1.099780565
       206          103.000000         6.555769738       272.208531322       -93.127665104       -87.588772340         0.791201864
       207          103.500000         6.687764168       277.689201243       -93.253010064       -87.590996109         0.785975798
       208          104.000000         6.701908432       278.276499066       -93.261686729       -87.587774447         0.862972108
       209          104.500000         6.642361166       275.803978758       -93.200695395       -87.583235130         0.841097816
       210          105.000000         6.577425684       273.107729063       -93.137173262       -87.582815368         0.784625708
       211          105.500000         6.518532324       270.662360206       -93.081931066       -87.585661445         0.800956181
       212          106.000000         6.435372477       267.209398841       -92.990640672       -87.586813509         0.835257571
       213          106.500000         6.297285243       261.475743647       -92.840944094       -87.583214156         0.794617115
       214          107.000000         6.163705976       255.929268154       -92.682446050       -87.577536359         0.820445756
       215          107.500000         6.099406156       253.259412414       -92.598673972       -87.575356679         0.811939839
       216          108.000000         6.131751349       254.602448808       -92.621398846       -87.578517261         0.793455207
       217          108.500000         6.204660004       257.629760423       -92.701847322       -87.583680472         0.791003586
       218          109.000000         6.269630452       260.327462008       -92.769519875       -87.584834247         1.074691063
       219          109.500000         6.328773910       262.783215407       -92.812740090       -87.581446392         0.839111965
       220          110.000000         6.403135833       265.870869558       -92.879867700       -87.579329966         0.828339212
       221          110.500000         6.538252376       271.481175791       -93.002288286       -87.582070737         0.821644851
       222          111.000000         6.688910460       277.736797548       -93.139129959       -87.587495439         0.778374056
       223          111.500000         6.760798393       280.721726770       -93.208399909       -87.589917632         0.812248611
       224          112.000000         6.715493726       278.840587344       -93.170951683       -87.587148355         0.801811653
       225          112.500000         6.609349825       274.433282543       -93.064872986       -87.583109584         0.803127937
       226          113.000000         6.478257351       268.990063647       -92.951712568       -87.582510011         0.774603037
       227          113.500000         6.362489714       264.183162277       -92.845852058       -87.585438627         0.835450830