 DBCSR| CPU Multiplication driver                                           BLAS
 DBCSR| Multrec recursion limit                                              512
 DBCSR| Multiplication stack size                                           1000
 DBCSR| Maximum elements for images                                    UNLIMITED
 DBCSR| Multiplicative factor virtual images                                   1
 DBCSR| Use multiplication densification                                       T
 DBCSR| Multiplication size stacks                                             3
 DBCSR| Use memory pool for CPU allocation                                     F
 DBCSR| Number of 3D layers                                               SINGLE
 DBCSR| Use MPI memory allocation                                              F
 DBCSR| Use RMA algorithm                                                      F
 DBCSR| Use Communication thread                                               T
 DBCSR| Communication thread load                                             87
 DBCSR| MPI: My node id                                                        0
 DBCSR| MPI: Number of nodes                                                  40
 DBCSR| OMP: Current number of threads                                         1
 DBCSR| OMP: Max number of threads                                             1
 DBCSR| Split modifier for TAS multiplication algorithm                  1.0E+00


  **** **** ******  **  PROGRAM STARTED AT               2022-06-15 21:51:37.230
 ***** ** ***  *** **   PROGRAM STARTED ON           Orion-01-54.HPC.MsState.Edu
 **    ****   ******    PROGRAM STARTED BY                                 wnw36
 ***** **    ** ** **   PROGRAM PROCESS ID                                415693
  **** **  *******  **  PROGRAM STARTED IN /work/hpc/users/wnw36/MSU-DFT-Catalys
                                           is-School/5_NEB/1_O-Diffusion/Pt/2_pr
                                           oduct

 CP2K| version string:                                          CP2K version 9.1
 CP2K| source code revision number:                                  git:d8d7100
 CP2K| cp2kflags: omp libint fftw3 libxc parallel mpi3 scalapack max_contr=4 plu
 CP2K|            med2 spglib mkl check_diag libvori libbqb
 CP2K| is freely available from                            https://www.cp2k.org/
 CP2K| Program compiled at                          Mon May 23 16:32:41 CDT 2022
 CP2K| Program compiled on                         Orion-devel-1.HPC.MsState.Edu
 CP2K| Program compiled for                              Linux-x86-64-intel-hpc2
 CP2K| Data directory path                      /apps/contrib/cp2k/cp2k/9.1/data
 CP2K| Input file name                                                  cp2k.inp
 
 GLOBAL| Force Environment number                                              1
 GLOBAL| Basis set file name                                           BASIS_SET
 GLOBAL| Potential file name                                      GTH_POTENTIALS
 GLOBAL| MM Potential file name                                     MM_POTENTIAL
 GLOBAL| Coordinate file name                                      __STD_INPUT__
 GLOBAL| Method name                                                        CP2K
 GLOBAL| Project name                                                    Pt111-O
 GLOBAL| Run type                                                        GEO_OPT
 GLOBAL| FFT library                                                       FFTW3
 GLOBAL| Diagonalization library                                       ScaLAPACK
 GLOBAL| Orthonormality check for eigenvectors enabled                 5.000E-14
 GLOBAL| Matrix multiplication library                                 ScaLAPACK
 GLOBAL| All-to-all communication in single precision                          F
 GLOBAL| FFTs using library dependent lengths                                  F
 GLOBAL| Grid backend                                                       AUTO
 GLOBAL| Global print level                                               MEDIUM
 GLOBAL| MPI I/O enabled                                                       T
 GLOBAL| Total number of message passing processes                            40
 GLOBAL| Number of threads for this process                                    1
 GLOBAL| This output is from process                                           0
 GLOBAL| Stack size for threads created by OpenMP (OMP_STACKSIZE)        default
 GLOBAL| CPU model name                 Intel(R) Xeon(R) Gold 6148 CPU @ 2.40GHz
 GLOBAL| CPUID                                                              1003

 MEMORY| system memory details [Kb]
 MEMORY|                        rank 0           min           max       average
 MEMORY| MemTotal            196434476     196434476     196434476     196434476
 MEMORY| MemFree             160309112     160309112     160309732     160309716
 MEMORY| Buffers                    20            20            20            20
 MEMORY| Cached               18262028      18262028      18262028      18262028
 MEMORY| Slab                  6210356       6210356       6210356       6210356
 MEMORY| SReclaimable          2080240       2080240       2080240       2080240
 MEMORY| MemLikelyFree       180651400     180651400     180652020     180652004


 *** Fundamental physical constants (SI units) ***

 *** Literature: B. J. Mohr and B. N. Taylor,
 ***             CODATA recommended values of the fundamental physical
 ***             constants: 2006, Web Version 5.1
 ***             http://physics.nist.gov/constants

 Speed of light in vacuum [m/s]                             2.99792458000000E+08
 Magnetic constant or permeability of vacuum [N/A**2]       1.25663706143592E-06
 Electric constant or permittivity of vacuum [F/m]          8.85418781762039E-12
 Planck constant (h) [J*s]                                  6.62606896000000E-34
 Planck constant (h-bar) [J*s]                              1.05457162825177E-34
 Elementary charge [C]                                      1.60217648700000E-19
 Electron mass [kg]                                         9.10938215000000E-31
 Electron g factor [ ]                                     -2.00231930436220E+00
 Proton mass [kg]                                           1.67262163700000E-27
 Fine-structure constant                                    7.29735253760000E-03
 Rydberg constant [1/m]                                     1.09737315685270E+07
 Avogadro constant [1/mol]                                  6.02214179000000E+23
 Boltzmann constant [J/K]                                   1.38065040000000E-23
 Atomic mass unit [kg]                                      1.66053878200000E-27
 Bohr radius [m]                                            5.29177208590000E-11

 *** Conversion factors ***

 [u] -> [a.u.]                                              1.82288848426455E+03
 [Angstrom] -> [Bohr] = [a.u.]                              1.88972613288564E+00
 [a.u.] = [Bohr] -> [Angstrom]                              5.29177208590000E-01
 [a.u.] -> [s]                                              2.41888432650478E-17
 [a.u.] -> [fs]                                             2.41888432650478E-02
 [a.u.] -> [J]                                              4.35974393937059E-18
 [a.u.] -> [N]                                              8.23872205491840E-08
 [a.u.] -> [K]                                              3.15774647902944E+05
 [a.u.] -> [kJ/mol]                                         2.62549961709828E+03
 [a.u.] -> [kcal/mol]                                       6.27509468713739E+02
 [a.u.] -> [Pa]                                             2.94210107994716E+13
 [a.u.] -> [bar]                                            2.94210107994716E+08
 [a.u.] -> [atm]                                            2.90362800883016E+08
 [a.u.] -> [eV]                                             2.72113838565563E+01
 [a.u.] -> [Hz]                                             6.57968392072181E+15
 [a.u.] -> [1/cm] (wave numbers)                            2.19474631370540E+05
 [a.u./Bohr**2] -> [1/cm]                                   5.14048714338585E+03
 

 CELL_TOP| Volume [angstrom^3]:                                      1598.805915
 CELL_TOP| Vector a [angstrom    11.248     0.000     0.000   |a| =    11.248004
 CELL_TOP| Vector b [angstrom     5.624     9.741     0.000   |b| =    11.248004
 CELL_TOP| Vector c [angstrom     0.000     0.000    14.592   |c| =    14.591978
 CELL_TOP| Angle (b,c), alpha [degree]:                                90.000000
 CELL_TOP| Angle (a,c), beta  [degree]:                                90.000000
 CELL_TOP| Angle (a,b), gamma [degree]:                                60.000000
 CELL_TOP| Numerically orthorhombic:                                          NO
 
 GENERATE|  Preliminary Number of Bonds generated:                             0
 GENERATE|  Achieved consistency in connectivity generation.

 CELL| Volume [angstrom^3]:                                          1598.805915
 CELL| Vector a [angstrom]:      11.248     0.000     0.000   |a| =    11.248004
 CELL| Vector b [angstrom]:       5.624     9.741     0.000   |b| =    11.248004
 CELL| Vector c [angstrom]:       0.000     0.000    14.592   |c| =    14.591978
 CELL| Angle (b,c), alpha [degree]:                                    90.000000
 CELL| Angle (a,c), beta  [degree]:                                    90.000000
 CELL| Angle (a,b), gamma [degree]:                                    60.000000
 CELL| Numerically orthorhombic:                                              NO

 CELL_REF| Volume [angstrom^3]:                                      1598.805915
 CELL_REF| Vector a [angstrom    11.248     0.000     0.000   |a| =    11.248004
 CELL_REF| Vector b [angstrom     5.624     9.741     0.000   |b| =    11.248004
 CELL_REF| Vector c [angstrom     0.000     0.000    14.592   |c| =    14.591978
 CELL_REF| Angle (b,c), alpha [degree]:                                90.000000
 CELL_REF| Angle (a,c), beta  [degree]:                                90.000000
 CELL_REF| Angle (a,b), gamma [degree]:                                60.000000
 CELL_REF| Numerically orthorhombic:                                          NO

 *******************************************************************************
 *******************************************************************************
 **                                                                           **
 **     #####                         ##              ##                      **
 **    ##   ##            ##          ##              ##                      **
 **   ##     ##                       ##            ######                    **
 **   ##     ##  ##   ##  ##   #####  ##  ##   ####   ##    #####    #####    **
 **   ##     ##  ##   ##  ##  ##      ## ##   ##      ##   ##   ##  ##   ##   **
 **   ##  ## ##  ##   ##  ##  ##      ####     ###    ##   ######   ######    **
 **    ##  ###   ##   ##  ##  ##      ## ##      ##   ##   ##       ##        **
 **     #######   #####   ##   #####  ##  ##  ####    ##    #####   ##        **
 **           ##                                                    ##        **
 **                                                                           **
 **                                                ... make the atoms dance   **
 **                                                                           **
 **            Copyright (C) by CP2K developers group (2000-2021)             **
 **                      J. Chem. Phys. 152, 194103 (2020)                    **
 **                                                                           **
 *******************************************************************************

 DFT| Spin unrestricted (spin-polarized) Kohn-Sham calculation               UKS
 DFT| Multiplicity                                                             2
 DFT| Number of spin states                                                    2
 DFT| Charge                                                                   0
 DFT| Self-interaction correction (SIC)                                       NO
 DFT| Cutoffs: density                                              1.000000E-10
 DFT|          gradient                                             1.000000E-10
 DFT|          tau                                                  1.000000E-10
 DFT|          cutoff_smoothing_range                               0.000000E+00
 DFT| XC density smoothing                                                  NONE
 DFT| XC derivatives                                                          PW
 FUNCTIONAL| ROUTINE=NEW
 FUNCTIONAL| PADE:
 FUNCTIONAL| S. Goedecker, M. Teter and J. Hutter, Phys. Rev. B 54, 1703 (1996) 

 QS| Method:                                                                 GPW
 QS| Density plane wave grid type                        NON-SPHERICAL FULLSPACE
 QS| Number of grid levels:                                                    4
 QS| Density cutoff [a.u.]:                                                170.0
 QS| Multi grid cutoff [a.u.]: 1) grid level                               170.0
 QS|                           2) grid level                                56.7
 QS|                           3) grid level                                18.9
 QS|                           4) grid level                                 6.3
 QS| Grid level progression factor:                                          3.0
 QS| Relative density cutoff [a.u.]:                                        20.0
 QS| Interaction thresholds: eps_pgf_orb:                                1.0E-05
 QS|                         eps_filter_matrix:                          0.0E+00
 QS|                         eps_core_charge:                            1.0E-12
 QS|                         eps_rho_gspace:                             1.0E-10
 QS|                         eps_rho_rspace:                             1.0E-10
 QS|                         eps_gvg_rspace:                             1.0E-05
 QS|                         eps_ppl:                                    1.0E-02
 QS|                         eps_ppnl:                                   1.0E-07


 ATOMIC KIND INFORMATION

  1. Atomic kind: Pt                                    Number of atoms:      48

     Orbital Basis Set                                              DZV-GTH-PADE

       Number of orbital shell sets:                                           1
       Number of orbital shells:                                               7
       Number of primitive Cartesian functions:                                5
       Number of Cartesian basis functions:                                   21
       Number of spherical basis functions:                                   19
       Norm type:                                                              2

       Normalised Cartesian orbitals:

                        Set   Shell   Orbital            Exponent    Coefficient

                          1       1    5s                3.853990       1.284223
                                                         1.761529      -0.955061
                                                         0.798476      -0.354894
                                                         0.306400      -0.012294
                                                         0.090551       0.000118

                          1       2    6s                3.853990      -0.206176
                                                         1.761529       0.152739
                                                         0.798476       0.365439
                                                         0.306400      -0.073141
                                                         0.090551      -0.118192

                          1       3    7s                3.853990       0.000000
                                                         1.761529       0.000000
                                                         0.798476       0.000000
                                                         0.306400       0.000000
                                                         0.090551       0.117647

                          1       4    6px               3.853990       0.779848
                                                         1.761529      -1.320402
                                                         0.798476      -0.635344
                                                         0.306400      -0.029940
                                                         0.090551       0.000021
                          1       4    6py               3.853990       0.779848
                                                         1.761529      -1.320402
                                                         0.798476      -0.635344
                                                         0.306400      -0.029940
                                                         0.090551       0.000021
                          1       4    6pz               3.853990       0.779848
                                                         1.761529      -1.320402
                                                         0.798476      -0.635344
                                                         0.306400      -0.029940
                                                         0.090551       0.000021

                          1       5    7px               3.853990       0.000000
                                                         1.761529       0.000000
                                                         0.798476       0.000000
                                                         0.306400       0.324938
                                                         0.090551       0.000000
                          1       5    7py               3.853990       0.000000
                                                         1.761529       0.000000
                                                         0.798476       0.000000
                                                         0.306400       0.324938
                                                         0.090551       0.000000
                          1       5    7pz               3.853990       0.000000
                                                         1.761529       0.000000
                                                         0.798476       0.000000
                                                         0.306400       0.324938
                                                         0.090551       0.000000

                          1       6    7dx2              3.853990       1.322239
                                                         1.761529      -1.321302
                                                         0.798476      -0.473688
                                                         0.306400      -0.086328
                                                         0.090551      -0.003392
                          1       6    7dxy              3.853990       2.290185
                                                         1.761529      -2.288562
                                                         0.798476      -0.820452
                                                         0.306400      -0.149524
                                                         0.090551      -0.005875
                          1       6    7dxz              3.853990       2.290185
                                                         1.761529      -2.288562
                                                         0.798476      -0.820452
                                                         0.306400      -0.149524
                                                         0.090551      -0.005875
                          1       6    7dy2              3.853990       1.322239
                                                         1.761529      -1.321302
                                                         0.798476      -0.473688
                                                         0.306400      -0.086328
                                                         0.090551      -0.003392
                          1       6    7dyz              3.853990       2.290185
                                                         1.761529      -2.288562
                                                         0.798476      -0.820452
                                                         0.306400      -0.149524
                                                         0.090551      -0.005875
                          1       6    7dz2              3.853990       1.322239
                                                         1.761529      -1.321302
                                                         0.798476      -0.473688
                                                         0.306400      -0.086328
                                                         0.090551      -0.003392

                          1       7    8dx2              3.853990       0.000000
                                                         1.761529       0.000000
                                                         0.798476       1.110113
                                                         0.306400       0.000000
                                                         0.090551       0.000000
                          1       7    8dxy              3.853990       0.000000
                                                         1.761529       0.000000
                                                         0.798476       1.922772
                                                         0.306400       0.000000
                                                         0.090551       0.000000
                          1       7    8dxz              3.853990       0.000000
                                                         1.761529       0.000000
                                                         0.798476       1.922772
                                                         0.306400       0.000000
                                                         0.090551       0.000000
                          1       7    8dy2              3.853990       0.000000
                                                         1.761529       0.000000
                                                         0.798476       1.110113
                                                         0.306400       0.000000
                                                         0.090551       0.000000
                          1       7    8dyz              3.853990       0.000000
                                                         1.761529       0.000000
                                                         0.798476       1.922772
                                                         0.306400       0.000000
                                                         0.090551       0.000000
                          1       7    8dz2              3.853990       0.000000
                                                         1.761529       0.000000
                                                         0.798476       1.110113
                                                         0.306400       0.000000
                                                         0.090551       0.000000

       Atomic covalent radius [Angstrom]:                                  1.300

       Atomic van der Waals radius [Angstrom]:                             1.750

     GTH Potential information for                                  GTH-PADE-q18

       Description:                       Goedecker-Teter-Hutter pseudopotential
                                           Goedecker et al., PRB 54, 1703 (1996)
                                          Hartwigsen et al., PRB 58, 3641 (1998)
                                                      Krack, TCA 114, 145 (2005)

       Gaussian exponent of the core charge distribution:               2.000000
       Electronic configuration (s p d ...):                           3   6   9

       Parameters of the local part of the GTH pseudopotential:

                          rloc        C1          C2          C3          C4
                        0.500000    5.445832    1.156382

       Parameters of the non-local part of the GTH pseudopotential:

                   l      r(l)      h(i,j,l)

                   0    0.409942    2.994366    2.884897    1.035209
                                    2.884897   -7.448772   -2.672899
                                    1.035209   -2.672899    4.243095
                   1    0.398652   -0.225181    1.596063
                                    1.596063   -3.776974
                   2    0.367964    0.632067    2.537907
                                    2.537907   -5.755431

  2. Atomic kind: H                                     Number of atoms:       1

     Orbital Basis Set                                             DZVP-GTH-PADE

       Number of orbital shell sets:                                           2
       Number of orbital shells:                                               3
       Number of primitive Cartesian functions:                                5
       Number of Cartesian basis functions:                                    5
       Number of spherical basis functions:                                    5
       Norm type:                                                              2

       Normalised Cartesian orbitals:

                        Set   Shell   Orbital            Exponent    Coefficient

                          1       1    1s                8.374435      -0.083834
                                                         1.805868      -0.155208
                                                         0.485253      -0.104875
                                                         0.165824      -0.128813

                          1       2    2s                8.374435       0.000000
                                                         1.805868       0.000000
                                                         0.485253       0.000000
                                                         0.165824       0.185202

                          2       1    2px               0.700000       0.912668
                          2       1    2py               0.700000       0.912668
                          2       1    2pz               0.700000       0.912668

       Atomic covalent radius [Angstrom]:                                  0.320

       Atomic van der Waals radius [Angstrom]:                             1.090

     GTH Potential information for                                   GTH-PADE-q1

       Description:                       Goedecker-Teter-Hutter pseudopotential
                                           Goedecker et al., PRB 54, 1703 (1996)
                                          Hartwigsen et al., PRB 58, 3641 (1998)
                                                      Krack, TCA 114, 145 (2005)

       Gaussian exponent of the core charge distribution:              12.500000
       Electronic configuration (s p d ...):                                   1

       Parameters of the local part of the GTH pseudopotential:

                          rloc        C1          C2          C3          C4
                        0.200000   -4.180237    0.725075


 MOLECULE KIND INFORMATION


 All atoms are their own molecule, skipping detailed information


 TOTAL NUMBERS AND MAXIMUM NUMBERS

  Total number of            - Atomic kinds:                                   2
                             - Atoms:                                         49
                             - Shell sets:                                    50
                             - Shells:                                       339
                             - Primitive Cartesian functions:                245
                             - Cartesian basis functions:                   1013
                             - Spherical basis functions:                    917

  Maximum angular momentum of- Orbital basis functions:                        2
                             - Local part of the GTH pseudopotential:          2
                             - Non-local part of the GTH pseudopotential:      4


 MODULE QUICKSTEP:  ATOMIC COORDINATES IN angstrom

 Atom  Kind  Element       X           Y           Z          Z(eff)       Mass
    1   1 Pt  78       0.000000    0.000000    5.000000      18.0000    195.0840
    2   1 Pt  78       1.406001    2.435264    5.000000      18.0000    195.0840
    3   1 Pt  78       2.812001    0.000000    5.000000      18.0000    195.0840
    4   1 Pt  78       4.218002    2.435264    5.000000      18.0000    195.0840
    5   1 Pt  78       2.812001    4.870529    5.000000      18.0000    195.0840
    6   1 Pt  78       4.218002    7.305793    5.000000      18.0000    195.0840
    7   1 Pt  78       5.624002    4.870529    5.000000      18.0000    195.0840
    8   1 Pt  78       7.030003    7.305793    5.000000      18.0000    195.0840
    9   1 Pt  78       5.624002    0.000000    5.000000      18.0000    195.0840
   10   1 Pt  78       7.030003    2.435264    5.000000      18.0000    195.0840
   11   1 Pt  78       8.436003    0.000000    5.000000      18.0000    195.0840
   12   1 Pt  78       9.842004    2.435264    5.000000      18.0000    195.0840
   13   1 Pt  78       8.436003    4.870529    5.000000      18.0000    195.0840
   14   1 Pt  78       9.842004    7.305793    5.000000      18.0000    195.0840
   15   1 Pt  78      11.248004    4.870529    5.000000      18.0000    195.0840
   16   1 Pt  78      12.654005    7.305793    5.000000      18.0000    195.0840
   17   1 Pt  78       5.625854    3.247176    7.357162      18.0000    195.0840
   18   1 Pt  78       4.215276    0.810636    7.346397      18.0000    195.0840
   19   1 Pt  78       2.811966    3.243452    7.342093      18.0000    195.0840
   20   1 Pt  78       8.439564    8.114441    7.358316      18.0000    195.0840
   21   1 Pt  78       7.018862    5.690826    7.299886      18.0000    195.0840
   22   1 Pt  78       5.625828    8.120652    7.317148      18.0000    195.0840
   23   1 Pt  78      11.248316    3.246058    7.361604      18.0000    195.0840
   24   1 Pt  78       9.849420    0.809323    7.316119      18.0000    195.0840
   25   1 Pt  78       8.435071    3.240992    7.297948      18.0000    195.0840
   26   1 Pt  78      14.058304    8.119279    7.313932      18.0000    195.0840
   27   1 Pt  78      12.660922    5.677520    7.315423      18.0000    195.0840
   28   1 Pt  78      11.243828    8.126181    7.316011      18.0000    195.0840
   29   1 Pt  78       1.408200    0.814646    7.341604      18.0000    195.0840
   30   1 Pt  78       4.214866    5.680905    7.317888      18.0000    195.0840
   31   1 Pt  78       7.023158    0.808795    7.315438      18.0000    195.0840
   32   1 Pt  78       9.849050    5.690653    7.296863      18.0000    195.0840
   33   1 Pt  78       2.814821    1.612539    9.687197      18.0000    195.0840
   34   1 Pt  78       4.189758    4.043938    9.664047      18.0000    195.0840
   35   1 Pt  78       5.603067    1.592396    9.667254      18.0000    195.0840
   36   1 Pt  78       6.960179    4.013531    9.559041      18.0000    195.0840
   37   1 Pt  78       5.581875    6.510108    9.610367      18.0000    195.0840
   38   1 Pt  78       7.023406    8.952553    9.667457      18.0000    195.0840
   39   1 Pt  78       8.437325    6.577740    9.559577      18.0000    195.0840
   40   1 Pt  78       9.850255    8.953627    9.667626      18.0000    195.0840
   41   1 Pt  78       8.436227    1.568504    9.604424      18.0000    195.0840
   42   1 Pt  78       9.915701    4.009627    9.556217      18.0000    195.0840
   43   1 Pt  78      11.266892    1.595534    9.665252      18.0000    195.0840
   44   1 Pt  78      12.680537    4.043859    9.659619      18.0000    195.0840
   45   1 Pt  78      11.290047    6.511150    9.602763      18.0000    195.0840
   46   1 Pt  78      12.660577    8.918961    9.629893      18.0000    195.0840
   47   1 Pt  78      14.061059    6.497827    9.633656      18.0000    195.0840
   48   1 Pt  78      15.457910    8.918225    9.630808      18.0000    195.0840
   49   2 H    1       8.435000    3.241000   10.751000       1.0000      1.0079




 SCF PARAMETERS         Density guess:                                    ATOMIC
                        --------------------------------------------------------
                        max_scf:                                              50
                        max_scf_history:                                       0
                        max_diis:                                              4
                        --------------------------------------------------------
                        eps_scf:                                        1.00E-05
                        eps_scf_history:                                0.00E+00
                        eps_diis:                                       1.00E-01
                        eps_eigval:                                     1.00E-05
                        --------------------------------------------------------
                        level_shift [a.u.]:                                 0.00
                        --------------------------------------------------------
                        Outer loop SCF in use 
                        No variables optimised in outer loop
                        eps_scf                                         1.00E-05
                        max_scf                                               50
                        No outer loop optimization
                        step_size                                       5.00E-01

 PW_GRID| Information for grid number                                          1
 PW_GRID| Grid distributed over                                    40 processors
 PW_GRID| Real space group dimensions                                    40    1
 PW_GRID| the grid is blocked:                                                NO
 PW_GRID| Cutoff [a.u.]                                                    170.0
 PW_GRID| spherical cutoff:                                                   NO
 PW_GRID|   Bounds   1            -62      62                Points:         125
 PW_GRID|   Bounds   2            -62      62                Points:         125
 PW_GRID|   Bounds   3            -81      80                Points:         162
 PW_GRID| Volume element (a.u.^3)  0.4262E-02     Volume (a.u.^3)     10789.2772
 PW_GRID| Grid span                                                    FULLSPACE
 PW_GRID|   Distribution                         Average         Max         Min
 PW_GRID|   G-Vectors                            63281.2       63375       63250
 PW_GRID|   G-Rays                                 506.2         507         506
 PW_GRID|   Real Space Points                    63281.2       81000       60750

 PW_GRID| Information for grid number                                          2
 PW_GRID| Number of the reference grid                                         1
 PW_GRID| Grid distributed over                                    40 processors
 PW_GRID| Real space group dimensions                                    40    1
 PW_GRID| the grid is blocked:                                                NO
 PW_GRID| Cutoff [a.u.]                                                     56.7
 PW_GRID| spherical cutoff:                                                   NO
 PW_GRID|   Bounds   1            -37      37                Points:          75
 PW_GRID|   Bounds   2            -37      37                Points:          75
 PW_GRID|   Bounds   3            -48      47                Points:          96
 PW_GRID| Volume element (a.u.^3)  0.1998E-01     Volume (a.u.^3)     10789.2772
 PW_GRID| Grid span                                                    FULLSPACE
 PW_GRID|   Distribution                         Average         Max         Min
 PW_GRID|   G-Vectors                            13500.0       13650       13275
 PW_GRID|   G-Rays                                 180.0         182         177
 PW_GRID|   Real Space Points                    13500.0       14400        7200

 PW_GRID| Information for grid number                                          3
 PW_GRID| Number of the reference grid                                         1
 PW_GRID| Grid distributed over                                    40 processors
 PW_GRID| Real space group dimensions                                    40    1
 PW_GRID| the grid is blocked:                                                NO
 PW_GRID| Cutoff [a.u.]                                                     18.9
 PW_GRID| spherical cutoff:                                                   NO
 PW_GRID|   Bounds   1            -22      22                Points:          45
 PW_GRID|   Bounds   2            -22      22                Points:          45
 PW_GRID|   Bounds   3            -27      26                Points:          54
 PW_GRID| Volume element (a.u.^3)  0.9867E-01     Volume (a.u.^3)     10789.2772
 PW_GRID| Grid span                                                    FULLSPACE
 PW_GRID|   Distribution                         Average         Max         Min
 PW_GRID|   G-Vectors                             2733.8        2925        2610
 PW_GRID|   G-Rays                                  60.8          65          58
 PW_GRID|   Real Space Points                     2733.8        4860        2430

 PW_GRID| Information for grid number                                          4
 PW_GRID| Number of the reference grid                                         1
 PW_GRID| Grid distributed over                                    40 processors
 PW_GRID| Real space group dimensions                                     5    8
 PW_GRID| the grid is blocked:                                                NO
 PW_GRID| Cutoff [a.u.]                                                      6.3
 PW_GRID| spherical cutoff:                                                   NO
 PW_GRID|   Bounds   1            -12      12                Points:          25
 PW_GRID|   Bounds   2            -12      12                Points:          25
 PW_GRID|   Bounds   3            -16      15                Points:          32
 PW_GRID| Volume element (a.u.^3)  0.5395         Volume (a.u.^3)     10789.2772
 PW_GRID| Grid span                                                    FULLSPACE
 PW_GRID|   Distribution                         Average         Max         Min
 PW_GRID|   G-Vectors                              500.0         575         425
 PW_GRID|   G-Rays                                  20.0          23          17
 PW_GRID|   Real Space Points                      500.0         640         480

 POISSON| Solver                                                        PERIODIC
 POISSON| Periodicity                                                        XYZ

 RS_GRID| Information for grid number                                          1
 RS_GRID|   Bounds   1            -62      62                Points:         125
 RS_GRID|   Bounds   2            -62      62                Points:         125
 RS_GRID|   Bounds   3            -81      80                Points:         162
 RS_GRID| Real space distribution over                                  5 groups
 RS_GRID| Real space distribution along direction                              2
 RS_GRID| Border size                                                         36
 RS_GRID| Real space distribution over                                  8 groups
 RS_GRID| Real space distribution along direction                              3
 RS_GRID| Border size                                                         36
 RS_GRID|   Distribution                         Average         Max         Min
 RS_GRID|   Planes                                  97.0          97          97
 RS_GRID|   Distribution                         Average         Max         Min
 RS_GRID|   Planes                                  92.2          93          92

 RS_GRID| Information for grid number                                          2
 RS_GRID|   Bounds   1            -37      37                Points:          75
 RS_GRID|   Bounds   2            -37      37                Points:          75
 RS_GRID|   Bounds   3            -48      47                Points:          96
 RS_GRID| Real space fully replicated
 RS_GRID| Group size                                                           1

 RS_GRID| Information for grid number                                          3
 RS_GRID|   Bounds   1            -22      22                Points:          45
 RS_GRID|   Bounds   2            -22      22                Points:          45
 RS_GRID|   Bounds   3            -27      26                Points:          54
 RS_GRID| Real space fully replicated
 RS_GRID| Group size                                                           1

 RS_GRID| Information for grid number                                          4
 RS_GRID|   Bounds   1            -12      12                Points:          25
 RS_GRID|   Bounds   2            -12      12                Points:          25
 RS_GRID|   Bounds   3            -16      15                Points:          32
 RS_GRID| Real space fully replicated
 RS_GRID| Group size                                                           1

 *******************************************************************************
 ***                     STARTING GEOMETRY OPTIMIZATION                      ***
 ***                                 L-BFGS                                  ***
 *******************************************************************************

 --------------------------
 OPTIMIZATION STEP:      1
 --------------------------

 Spin 1

 Number of electrons:                                                        433
 Number of occupied orbitals:                                                433
 Number of molecular orbitals:                                               433

 Spin 2

 Number of electrons:                                                        432
 Number of occupied orbitals:                                                432
 Number of molecular orbitals:                                               432

 Number of orbital functions:                                                917
 Number of independent orbital functions:                                    917

 Extrapolation method: initial_guess

 Atomic guess: The first density matrix is obtained in terms of atomic orbitals
               and electronic configurations assigned to each atomic kind

 Guess for atomic kind: Pt

 Electronic structure
    Total number of core electrons                                         60.00
    Total number of valence electrons                                      18.00
    Total number of electrons                                              78.00
    Multiplicity                                                   not specified
    S   [  2.00  2.00  2.00  2.00] 2.00  1.00
    P   [  6.00  6.00  6.00] 6.00
    D   [ 10.00 10.00] 9.00
    F   [ 14.00]
 

 *******************************************************************************
                  Iteration          Convergence                     Energy [au]
 *******************************************************************************
                          1         1.01375                    -120.700954046978
                          2        0.457918                    -120.743638695117
                          3        0.873958E-02                -120.758010725686
                          4        0.990305E-05                -120.758015568606
                          5        0.211396E-07                -120.758015568614

 Energy components [Hartree]           Total Energy ::         -120.758015568614
                                        Band Energy ::          -21.973056227222
                                     Kinetic Energy ::           38.435033875918
                                   Potential Energy ::         -159.193049444532
                                      Virial (-V/T) ::            4.141873530240
                                        Core Energy ::         -211.719522036493
                                          XC Energy ::          -11.388375429335
                                     Coulomb Energy ::          102.349881897214
                       Total Pseudopotential Energy ::         -250.270908227561
                       Local Pseudopotential Energy ::         -236.202399898941
                    Nonlocal Pseudopotential Energy ::          -14.068508328620
                                        Confinement ::            1.163523151506

 Orbital energies  State     L     Occupation   Energy[a.u.]          Energy[eV]

                       1     0          2.000      -3.733489         -101.593414
                       2     0          1.000      -0.191928           -5.222627
 
                       1     1          6.000      -2.062427          -56.121506
 
                       1     2          9.000      -0.215509           -5.864308
 

 Total Electron Density at R=0:                                         0.018343

 Guess for atomic kind: H

 Electronic structure
    Total number of core electrons                                          0.00
    Total number of valence electrons                                       1.00
    Total number of electrons                                               1.00
    Multiplicity                                                   not specified
    S      1.00
 

 *******************************************************************************
                  Iteration          Convergence                     Energy [au]
 *******************************************************************************
                          1        0.316011E-02                  -0.422390558413
                          2        0.333152E-03                  -0.422399635530
                          3        0.114302E-06                  -0.422399737491

 Energy components [Hartree]           Total Energy ::           -0.422399737491
                                        Band Energy ::           -0.193019372217
                                     Kinetic Energy ::            0.475009752129
                                   Potential Energy ::           -0.897409489620
                                      Virial (-V/T) ::            1.889244348347
                                        Core Energy ::           -0.478923189740
                                          XC Energy ::           -0.248206713182
                                     Coulomb Energy ::            0.304730165431
                       Total Pseudopotential Energy ::           -0.971460622099
                       Local Pseudopotential Energy ::           -0.971460622099
                    Nonlocal Pseudopotential Energy ::            0.000000000000
                                        Confinement ::            0.175276802303

 Orbital energies  State     L     Occupation   Energy[a.u.]          Energy[eV]

                       1     0          1.000      -0.193019           -5.252324
 

 Total Electron Density at R=0:                                         0.237353

 Spin 1
 Re-scaling the density matrix to get the right number of electrons for spin 1
                  # Electrons              Trace(P)               Scaling factor
                          433               432.500                        1.001

 Spin 2
 Re-scaling the density matrix to get the right number of electrons for spin 2
                  # Electrons              Trace(P)               Scaling factor
                          432               432.500                        0.999


 SCF WAVEFUNCTION OPTIMIZATION

  ----------------------------------- OT ---------------------------------------
  Minimizer      : DIIS                : direct inversion
                                         in the iterative subspace
                                         using   7 DIIS vectors
                                         safer DIIS on
  Preconditioner : FULL_SINGLE_INVERSE : inversion of 
                                         H + eS - 2*(Sc)(c^T*H*c+const)(Sc)^T
  Precond_solver : DEFAULT
  stepsize       :    0.08000000                  energy_gap     :    0.08000000
  eps_taylor     :   0.10000E-15                  max_taylor     :             4
  ----------------------------------- OT ---------------------------------------

  Step     Update method      Time    Convergence         Total energy    Change
  ------------------------------------------------------------------------------
     1 OT DIIS     0.80E-01    0.8     0.01969377     -5757.9027048519 -5.76E+03
     2 OT DIIS     0.80E-01    0.9     0.01495062     -5779.6610831174 -2.18E+01
     3 OT DIIS     0.80E-01    0.9     0.00785455     -5800.8037892462 -2.11E+01
     4 OT DIIS     0.80E-01    0.9     0.00737148     -5801.3768220780 -5.73E-01
     5 OT DIIS     0.80E-01    0.9     0.00297647     -5807.1209315777 -5.74E+00
     6 OT DIIS     0.80E-01    0.9     0.00223746     -5808.1273662784 -1.01E+00
     7 OT DIIS     0.80E-01    0.9     0.00174462     -5808.9223884503 -7.95E-01
     8 OT DIIS     0.80E-01    0.9     0.00156894     -5809.4138090417 -4.91E-01
     9 OT DIIS     0.80E-01    0.9     0.00139392     -5810.0097590180 -5.96E-01
    10 OT DIIS     0.80E-01    0.9     0.00121006     -5810.9330578636 -9.23E-01
    11 OT DIIS     0.80E-01    0.9     0.00100100     -5811.5055790190 -5.73E-01
    12 OT DIIS     0.80E-01    0.9     0.00085604     -5811.9769032149 -4.71E-01
    13 OT DIIS     0.80E-01    0.9     0.00078248     -5812.2444457187 -2.68E-01
    14 OT DIIS     0.80E-01    0.9     0.00070924     -5812.5087266439 -2.64E-01
    15 OT DIIS     0.80E-01    0.9     0.00064840     -5812.6910944595 -1.82E-01
    16 OT DIIS     0.80E-01    0.9     0.00059014     -5812.9253360454 -2.34E-01
    17 OT DIIS     0.80E-01    0.9     0.00055035     -5813.0365764742 -1.11E-01
    18 OT DIIS     0.80E-01    0.9     0.00050559     -5813.2296412433 -1.93E-01
    19 OT DIIS     0.80E-01    0.9     0.00044031     -5813.3881223651 -1.58E-01
    20 OT DIIS     0.80E-01    0.9     0.00045146     -5813.4578813397 -6.98E-02
    21 OT DIIS     0.80E-01    0.9     0.00036841     -5813.5473132700 -8.94E-02
    22 OT DIIS     0.80E-01    0.9     0.00034239     -5813.6111084394 -6.38E-02
    23 OT DIIS     0.80E-01    0.9     0.00031835     -5813.6792462885 -6.81E-02
    24 OT DIIS     0.80E-01    0.9     0.00030201     -5813.7297393055 -5.05E-02
    25 OT DIIS     0.80E-01    0.9     0.00029091     -5813.8563224922 -1.27E-01
    26 OT DIIS     0.80E-01    0.9     0.00025458     -5813.8613032556 -4.98E-03
    27 OT DIIS     0.80E-01    0.9     0.00024752     -5813.8823620304 -2.11E-02
    28 OT DIIS     0.80E-01    0.9     0.00024973     -5813.9346984999 -5.23E-02
    29 OT DIIS     0.80E-01    0.9     0.00021340     -5813.9562852453 -2.16E-02
    30 OT DIIS     0.80E-01    0.9     0.00018780     -5814.0126246696 -5.63E-02
    31 OT DIIS     0.80E-01    0.9     0.00018125     -5814.0298791841 -1.73E-02
    32 OT DIIS     0.80E-01    0.9     0.00022498     -5814.0478034681 -1.79E-02
    33 OT DIIS     0.80E-01    0.9     0.00019667     -5814.0542027709 -6.40E-03
    34 OT DIIS     0.80E-01    0.9     0.00016317     -5814.0698674366 -1.57E-02
    35 OT DIIS     0.80E-01    0.9     0.00015403     -5814.0969188065 -2.71E-02
    36 OT DIIS     0.80E-01    0.9     0.00014353     -5814.1214513824 -2.45E-02
    37 OT DIIS     0.80E-01    0.9     0.00014888     -5814.1381634656 -1.67E-02
    38 OT DIIS     0.80E-01    0.9     0.00013243     -5814.1465710635 -8.41E-03
    39 OT DIIS     0.80E-01    0.9     0.00012506     -5814.1688534076 -2.23E-02
    40 OT DIIS     0.80E-01    0.9     0.00012342     -5814.1706599507 -1.81E-03
    41 OT DIIS     0.80E-01    0.9     0.00012065     -5814.1755627523 -4.90E-03
    42 OT DIIS     0.80E-01    0.9     0.00011077     -5814.1981332270 -2.26E-02
    43 OT DIIS     0.80E-01    0.9     0.00010999     -5814.1992274967 -1.09E-03
    44 OT DIIS     0.80E-01    0.9     0.00014778     -5814.2036081302 -4.38E-03
    45 OT DIIS     0.80E-01    0.9     0.00010043     -5814.2236479307 -2.00E-02
    46 OT DIIS     0.80E-01    0.9     0.00009576     -5814.2316103721 -7.96E-03
    47 OT DIIS     0.80E-01    0.9     0.00009175     -5814.2383299831 -6.72E-03
    48 OT DIIS     0.80E-01    0.9     0.00009251     -5814.2454268761 -7.10E-03
    49 OT SD       0.80E-01    0.9     0.00009128     -5814.2460368738 -6.10E-04
    50 OT SD       0.80E-01    0.9     0.00008900     -5814.2465574487 -5.21E-04

  Leaving inner SCF loop after reaching    50 steps.


  Electronic density on regular grids:       -864.9999998642        0.0000001358
  Core density on regular grids:              864.9999999462       -0.0000000538
  Total charge density on r-space grids:        0.0000000820
  Total charge density g-space grids:           0.0000000820

  Overlap energy of the core charge distribution:               0.00000000094856
  Self energy of the core charge distribution:              -8775.68687729357589
  Core Hamiltonian energy:                                   2006.23276721406091
  Hartree energy:                                            1509.81684452184186
  Exchange-correlation energy:                               -554.60929189201067

  Total energy:                                             -5814.24655744873598

  outer SCF iter =    1 RMS gradient =   0.89E-04 energy =      -5814.2465574487

  ----------------------------------- OT ---------------------------------------
  Minimizer      : DIIS                : direct inversion
                                         in the iterative subspace
                                         using   7 DIIS vectors
                                         safer DIIS on
  Preconditioner : FULL_SINGLE_INVERSE : inversion of 
                                         H + eS - 2*(Sc)(c^T*H*c+const)(Sc)^T
  Precond_solver : DEFAULT
  stepsize       :    0.08000000                  energy_gap     :    0.08000000
  eps_taylor     :   0.10000E-15                  max_taylor     :             4
  ----------------------------------- OT ---------------------------------------

  Step     Update method      Time    Convergence         Total energy    Change
  ------------------------------------------------------------------------------
     1 OT DIIS     0.80E-01    1.8     0.00033589     -5814.2470566397 -4.99E-04
     2 OT DIIS     0.80E-01    0.8     0.00034409     -5814.2534833975 -6.43E-03
     3 OT DIIS     0.80E-01    0.8     0.00032386     -5814.2563025756 -2.82E-03
     4 OT DIIS     0.80E-01    0.9     0.00031111     -5814.2625843517 -6.28E-03
     5 OT DIIS     0.80E-01    0.9     0.00029164     -5814.2849732081 -2.24E-02
     6 OT DIIS     0.80E-01    0.9     0.00026681     -5814.2996944746 -1.47E-02
     7 OT DIIS     0.80E-01    0.9     0.00022789     -5814.3088806406 -9.19E-03
     8 OT DIIS     0.80E-01    0.9     0.00022910     -5814.3176132826 -8.73E-03
     9 OT DIIS     0.80E-01    0.9     0.00022006     -5814.3229342624 -5.32E-03
    10 OT DIIS     0.80E-01    0.9     0.00020834     -5814.3336259871 -1.07E-02
    11 OT DIIS     0.80E-01    0.9     0.00021877     -5814.3430788890 -9.45E-03
    12 OT DIIS     0.80E-01    0.9     0.00018232     -5814.3475316551 -4.45E-03
    13 OT DIIS     0.80E-01    0.9     0.00015986     -5814.3523790268 -4.85E-03
    14 OT DIIS     0.80E-01    0.9     0.00015600     -5814.3552761280 -2.90E-03
    15 OT DIIS     0.80E-01    0.9     0.00015137     -5814.3587258901 -3.45E-03
    16 OT DIIS     0.80E-01    0.9     0.00014987     -5814.3638146789 -5.09E-03
    17 OT DIIS     0.80E-01    0.9     0.00014953     -5814.3664446452 -2.63E-03
    18 OT DIIS     0.80E-01    0.9     0.00013640     -5814.3710402559 -4.60E-03
    19 OT DIIS     0.80E-01    0.9     0.00013238     -5814.3738925132 -2.85E-03
    20 OT DIIS     0.80E-01    0.9     0.00012905     -5814.3753065806 -1.41E-03
    21 OT DIIS     0.80E-01    0.9     0.00012399     -5814.3782310355 -2.92E-03
    22 OT DIIS     0.80E-01    0.9     0.00012504     -5814.3808694394 -2.64E-03
    23 OT DIIS     0.80E-01    0.9     0.00011947     -5814.3841094971 -3.24E-03
    24 OT DIIS     0.80E-01    0.9     0.00011626     -5814.3876905191 -3.58E-03
    25 OT DIIS     0.80E-01    0.9     0.00011195     -5814.3892782510 -1.59E-03
    26 OT DIIS     0.80E-01    0.9     0.00010685     -5814.3916670784 -2.39E-03
    27 OT DIIS     0.80E-01    0.9     0.00010710     -5814.3940268267 -2.36E-03
    28 OT DIIS     0.80E-01    0.9     0.00010978     -5814.3957087732 -1.68E-03
    29 OT DIIS     0.80E-01    0.9     0.00010204     -5814.3986198917 -2.91E-03
    30 OT DIIS     0.80E-01    0.9     0.00009938     -5814.4006635033 -2.04E-03
    31 OT DIIS     0.80E-01    0.9     0.00009310     -5814.4022450580 -1.58E-03
    32 OT DIIS     0.80E-01    0.9     0.00009027     -5814.4035439764 -1.30E-03
    33 OT DIIS     0.80E-01    0.9     0.00009127     -5814.4048909156 -1.35E-03
    34 OT DIIS     0.80E-01    0.9     0.00008779     -5814.4067513380 -1.86E-03
    35 OT DIIS     0.80E-01    0.9     0.00008764     -5814.4086757941 -1.92E-03
    36 OT DIIS     0.80E-01    0.9     0.00008562     -5814.4099282254 -1.25E-03
    37 OT DIIS     0.80E-01    0.9     0.00008044     -5814.4109701847 -1.04E-03
    38 OT DIIS     0.80E-01    0.9     0.00007759     -5814.4118875648 -9.17E-04
    39 OT DIIS     0.80E-01    0.9     0.00007742     -5814.4129425254 -1.05E-03
    40 OT DIIS     0.80E-01    0.9     0.00007691     -5814.4139602356 -1.02E-03
    41 OT DIIS     0.80E-01    0.9     0.00007590     -5814.4149990531 -1.04E-03
    42 OT DIIS     0.80E-01    0.9     0.00007109     -5814.4161239750 -1.12E-03
    43 OT DIIS     0.80E-01    0.9     0.00006917     -5814.4169593997 -8.35E-04
    44 OT DIIS     0.80E-01    0.9     0.00006747     -5814.4174318141 -4.72E-04
    45 OT DIIS     0.80E-01    0.9     0.00006724     -5814.4181180515 -6.86E-04
    46 OT DIIS     0.80E-01    0.9     0.00006703     -5814.4188859115 -7.68E-04
    47 OT DIIS     0.80E-01    0.9     0.00006778     -5814.4197818020 -8.96E-04
    48 OT DIIS     0.80E-01    0.9     0.00006370     -5814.4206178195 -8.36E-04
    49 OT DIIS     0.80E-01    0.9     0.00006276     -5814.4213262096 -7.08E-04
    50 OT DIIS     0.80E-01    0.9     0.00005874     -5814.4217842977 -4.58E-04

  Leaving inner SCF loop after reaching    50 steps.


  Electronic density on regular grids:       -864.9999998621        0.0000001379
  Core density on regular grids:              864.9999999462       -0.0000000538
  Total charge density on r-space grids:        0.0000000842
  Total charge density g-space grids:           0.0000000842

  Overlap energy of the core charge distribution:               0.00000000094856
  Self energy of the core charge distribution:              -8775.68687729357589
  Core Hamiltonian energy:                                   2005.31911057579555
  Hartree energy:                                            1510.44299899819407
  Exchange-correlation energy:                               -554.49701657907235

  Total energy:                                             -5814.42178429771047

  outer SCF iter =    2 RMS gradient =   0.59E-04 energy =      -5814.4217842977

  ----------------------------------- OT ---------------------------------------
  Minimizer      : DIIS                : direct inversion
                                         in the iterative subspace
                                         using   7 DIIS vectors
                                         safer DIIS on
  Preconditioner : FULL_SINGLE_INVERSE : inversion of 
                                         H + eS - 2*(Sc)(c^T*H*c+const)(Sc)^T
  Precond_solver : DEFAULT
  stepsize       :    0.08000000                  energy_gap     :    0.08000000
  eps_taylor     :   0.10000E-15                  max_taylor     :             4
  ----------------------------------- OT ---------------------------------------

  Step     Update method      Time    Convergence         Total energy    Change
  ------------------------------------------------------------------------------
     1 OT DIIS     0.80E-01    1.8     0.00006502     -5814.4222028763 -4.19E-04
     2 OT DIIS     0.80E-01    0.8     0.00006956     -5814.4224574258 -2.55E-04
     3 OT DIIS     0.80E-01    0.8     0.00006337     -5814.4225375945 -8.02E-05
     4 OT DIIS     0.80E-01    0.8     0.00006523     -5814.4233625442 -8.25E-04
     5 OT DIIS     0.80E-01    0.8     0.00005743     -5814.4262905563 -2.93E-03
     6 OT DIIS     0.80E-01    0.9     0.00005111     -5814.4274167653 -1.13E-03
     7 OT DIIS     0.80E-01    0.9     0.00004668     -5814.4280922063 -6.75E-04
     8 OT DIIS     0.80E-01    0.9     0.00004563     -5814.4283829340 -2.91E-04
     9 OT DIIS     0.80E-01    0.9     0.00004491     -5814.4288469407 -4.64E-04
    10 OT DIIS     0.80E-01    0.9     0.00004565     -5814.4292895273 -4.43E-04
    11 OT DIIS     0.80E-01    0.9     0.00004667     -5814.4296784634 -3.89E-04
    12 OT DIIS     0.80E-01    0.9     0.00004279     -5814.4303073999 -6.29E-04
    13 OT DIIS     0.80E-01    0.9     0.00004127     -5814.4308081884 -5.01E-04
    14 OT DIIS     0.80E-01    0.9     0.00004072     -5814.4311197441 -3.12E-04
    15 OT DIIS     0.80E-01    0.9     0.00004028     -5814.4313555744 -2.36E-04
    16 OT DIIS     0.80E-01    0.9     0.00004020     -5814.4316745845 -3.19E-04
    17 OT DIIS     0.80E-01    0.9     0.00004005     -5814.4320466537 -3.72E-04
    18 OT DIIS     0.80E-01    0.9     0.00004013     -5814.4324442576 -3.98E-04
    19 OT DIIS     0.80E-01    0.9     0.00003964     -5814.4327411909 -2.97E-04
    20 OT DIIS     0.80E-01    0.9     0.00003899     -5814.4330420221 -3.01E-04
    21 OT DIIS     0.80E-01    0.9     0.00003870     -5814.4333084590 -2.66E-04
    22 OT DIIS     0.80E-01    0.9     0.00003874     -5814.4336472249 -3.39E-04
    23 OT DIIS     0.80E-01    0.9     0.00003863     -5814.4339477759 -3.01E-04
    24 OT DIIS     0.80E-01    0.9     0.00003834     -5814.4343610960 -4.13E-04
    25 OT DIIS     0.80E-01    0.9     0.00003806     -5814.4347384084 -3.77E-04
    26 OT DIIS     0.80E-01    0.9     0.00003793     -5814.4350842477 -3.46E-04
    27 OT DIIS     0.80E-01    0.9     0.00003788     -5814.4353810987 -2.97E-04
    28 OT DIIS     0.80E-01    0.9     0.00003768     -5814.4357628034 -3.82E-04
    29 OT DIIS     0.80E-01    0.9     0.00003745     -5814.4362019095 -4.39E-04
    30 OT DIIS     0.80E-01    0.9     0.00003719     -5814.4367723319 -5.70E-04
    31 OT DIIS     0.80E-01    0.9     0.00003690     -5814.4371949736 -4.23E-04
    32 OT DIIS     0.80E-01    0.9     0.00003626     -5814.4376926999 -4.98E-04
    33 OT DIIS     0.80E-01    0.9     0.00003620     -5814.4382855456 -5.93E-04
    34 OT DIIS     0.80E-01    0.9     0.00003658     -5814.4389476184 -6.62E-04
    35 OT DIIS     0.80E-01    0.9     0.00003673     -5814.4395005221 -5.53E-04
    36 OT DIIS     0.80E-01    0.9     0.00003528     -5814.4401067218 -6.06E-04
    37 OT DIIS     0.80E-01    0.9     0.00003361     -5814.4404844578 -3.78E-04
    38 OT DIIS     0.80E-01    0.9     0.00003301     -5814.4408935696 -4.09E-04
    39 OT DIIS     0.80E-01    0.9     0.00003463     -5814.4417800832 -8.87E-04
    40 OT DIIS     0.80E-01    0.9     0.00003309     -5814.4423315194 -5.51E-04
    41 OT DIIS     0.80E-01    0.9     0.00003216     -5814.4427845489 -4.53E-04
    42 OT DIIS     0.80E-01    0.9     0.00002999     -5814.4429271913 -1.43E-04
    43 OT DIIS     0.80E-01    0.9     0.00002985     -5814.4431040815 -1.77E-04
    44 OT DIIS     0.80E-01    0.9     0.00002724     -5814.4434866450 -3.83E-04
    45 OT DIIS     0.80E-01    0.9     0.00002724     -5814.4436898631 -2.03E-04
    46 OT DIIS     0.80E-01    0.9     0.00002565     -5814.4438634608 -1.74E-04
    47 OT DIIS     0.80E-01    0.9     0.00002532     -5814.4441463759 -2.83E-04
    48 OT DIIS     0.80E-01    0.9     0.00002765     -5814.4444347006 -2.88E-04
    49 OT DIIS     0.80E-01    0.9     0.00002439     -5814.4445527289 -1.18E-04
    50 OT DIIS     0.80E-01    0.9     0.00002288     -5814.4446547651 -1.02E-04

  Leaving inner SCF loop after reaching    50 steps.


  Electronic density on regular grids:       -864.9999998618        0.0000001382
  Core density on regular grids:              864.9999999462       -0.0000000538
  Total charge density on r-space grids:        0.0000000844
  Total charge density g-space grids:           0.0000000844

  Overlap energy of the core charge distribution:               0.00000000094856
  Self energy of the core charge distribution:              -8775.68687729357589
  Core Hamiltonian energy:                                   2005.24352775759644
  Hartree energy:                                            1510.49501844703718
  Exchange-correlation energy:                               -554.49632367712957

  Total energy:                                             -5814.44465476512414

  outer SCF iter =    3 RMS gradient =   0.23E-04 energy =      -5814.4446547651

  ----------------------------------- OT ---------------------------------------
  Minimizer      : DIIS                : direct inversion
                                         in the iterative subspace
                                         using   7 DIIS vectors
                                         safer DIIS on
  Preconditioner : FULL_SINGLE_INVERSE : inversion of 
                                         H + eS - 2*(Sc)(c^T*H*c+const)(Sc)^T
  Precond_solver : DEFAULT
  stepsize       :    0.08000000                  energy_gap     :    0.08000000
  eps_taylor     :   0.10000E-15                  max_taylor     :             4
  ----------------------------------- OT ---------------------------------------

  Step     Update method      Time    Convergence         Total energy    Change
  ------------------------------------------------------------------------------
     1 OT DIIS     0.80E-01    1.7     0.00002294     -5814.4447077101 -5.29E-05
     2 OT DIIS     0.80E-01    0.7     0.00002861     -5814.4447355830 -2.79E-05
     3 OT DIIS     0.80E-01    0.7     0.00002166     -5814.4447462319 -1.06E-05
     4 OT DIIS     0.80E-01    0.8     0.00002151     -5814.4447761803 -2.99E-05
     5 OT DIIS     0.80E-01    0.8     0.00002109     -5814.4448579300 -8.17E-05
     6 OT DIIS     0.80E-01    0.8     0.00002113     -5814.4450196555 -1.62E-04
     7 OT DIIS     0.80E-01    0.8     0.00001854     -5814.4452217167 -2.02E-04
     8 OT DIIS     0.80E-01    0.8     0.00001737     -5814.4453605551 -1.39E-04
     9 OT DIIS     0.80E-01    0.8     0.00001658     -5814.4454431843 -8.26E-05
    10 OT DIIS     0.80E-01    0.8     0.00001738     -5814.4455415709 -9.84E-05
    11 OT DIIS     0.80E-01    0.8     0.00001765     -5814.4455955428 -5.40E-05
    12 OT DIIS     0.80E-01    0.8     0.00001638     -5814.4456871632 -9.16E-05
    13 OT DIIS     0.80E-01    0.8     0.00001531     -5814.4457814538 -9.43E-05
    14 OT DIIS     0.80E-01    0.8     0.00001425     -5814.4458501813 -6.87E-05
    15 OT DIIS     0.80E-01    0.8     0.00001358     -5814.4458889807 -3.88E-05
    16 OT DIIS     0.80E-01    0.8     0.00001333     -5814.4459288280 -3.98E-05
    17 OT DIIS     0.80E-01    0.8     0.00001333     -5814.4459784208 -4.96E-05
    18 OT DIIS     0.80E-01    0.8     0.00001356     -5814.4460447289 -6.63E-05
    19 OT DIIS     0.80E-01    0.8     0.00001395     -5814.4460843100 -3.96E-05
    20 OT DIIS     0.80E-01    0.8     0.00001289     -5814.4461289812 -4.47E-05
    21 OT DIIS     0.80E-01    0.9     0.00001233     -5814.4461613295 -3.23E-05
    22 OT DIIS     0.80E-01    0.8     0.00001209     -5814.4461920035 -3.07E-05
    23 OT DIIS     0.80E-01    0.8     0.00001196     -5814.4462202681 -2.83E-05
    24 OT DIIS     0.80E-01    0.9     0.00001183     -5814.4462607620 -4.05E-05
    25 OT DIIS     0.80E-01    0.9     0.00001172     -5814.4463057012 -4.49E-05
    26 OT DIIS     0.80E-01    0.9     0.00001167     -5814.4463456339 -3.99E-05
    27 OT DIIS     0.80E-01    0.9     0.00001166     -5814.4463686544 -2.30E-05
    28 OT DIIS     0.80E-01    0.9     0.00001145     -5814.4463903706 -2.17E-05
    29 OT DIIS     0.80E-01    0.9     0.00001135     -5814.4464133770 -2.30E-05
    30 OT DIIS     0.80E-01    0.9     0.00001133     -5814.4464463372 -3.30E-05
    31 OT DIIS     0.80E-01    0.9     0.00001121     -5814.4464777020 -3.14E-05
    32 OT DIIS     0.80E-01    0.9     0.00001105     -5814.4465138482 -3.61E-05
    33 OT DIIS     0.80E-01    0.9     0.00001095     -5814.4465433590 -2.95E-05
    34 OT DIIS     0.80E-01    0.9     0.00001093     -5814.4465711791 -2.78E-05
    35 OT DIIS     0.80E-01    0.9     0.00001101     -5814.4465954645 -2.43E-05
    36 OT DIIS     0.80E-01    0.9     0.00001098     -5814.4466225604 -2.71E-05
    37 OT DIIS     0.80E-01    0.9     0.00001090     -5814.4466569065 -3.43E-05
    38 OT DIIS     0.80E-01    0.9     0.00001081     -5814.4466987252 -4.18E-05
    39 OT DIIS     0.80E-01    0.9     0.00001066     -5814.4467304613 -3.17E-05
    40 OT DIIS     0.80E-01    0.9     0.00001056     -5814.4467612232 -3.08E-05
    41 OT DIIS     0.80E-01    0.9     0.00001051     -5814.4467926139 -3.14E-05
    42 OT DIIS     0.80E-01    0.9     0.00001054     -5814.4468346279 -4.20E-05
    43 OT DIIS     0.80E-01    0.9     0.00001062     -5814.4468724039 -3.78E-05
    44 OT DIIS     0.80E-01    0.9     0.00001053     -5814.4469072769 -3.49E-05
    45 OT DIIS     0.80E-01    0.9     0.00001040     -5814.4469455619 -3.83E-05
    46 OT DIIS     0.80E-01    0.9     0.00001033     -5814.4469855638 -4.00E-05
    47 OT DIIS     0.80E-01    0.9     0.00001026     -5814.4470182385 -3.27E-05
    48 OT DIIS     0.80E-01    0.9     0.00001021     -5814.4470642684 -4.60E-05
    49 OT DIIS     0.80E-01    0.9     0.00001013     -5814.4471181548 -5.39E-05
    50 OT DIIS     0.80E-01    0.9     0.00001011     -5814.4471787109 -6.06E-05

  Leaving inner SCF loop after reaching    50 steps.


  Electronic density on regular grids:       -864.9999998618        0.0000001382
  Core density on regular grids:              864.9999999462       -0.0000000538
  Total charge density on r-space grids:        0.0000000844
  Total charge density g-space grids:           0.0000000844

  Overlap energy of the core charge distribution:               0.00000000094856
  Self energy of the core charge distribution:              -8775.68687729357589
  Core Hamiltonian energy:                                   2005.23118877566526
  Hartree energy:                                            1510.50529030479561
  Exchange-correlation energy:                               -554.49678049874512

  Total energy:                                             -5814.44717871091325

  outer SCF iter =    4 RMS gradient =   0.10E-04 energy =      -5814.4471787109

  ----------------------------------- OT ---------------------------------------
  Minimizer      : DIIS                : direct inversion
                                         in the iterative subspace
                                         using   7 DIIS vectors
                                         safer DIIS on
  Preconditioner : FULL_SINGLE_INVERSE : inversion of 
                                         H + eS - 2*(Sc)(c^T*H*c+const)(Sc)^T
  Precond_solver : DEFAULT
  stepsize       :    0.08000000                  energy_gap     :    0.08000000
  eps_taylor     :   0.10000E-15                  max_taylor     :             4
  ----------------------------------- OT ---------------------------------------

  Step     Update method      Time    Convergence         Total energy    Change
  ------------------------------------------------------------------------------
     1 OT DIIS     0.80E-01    1.8     0.00001015     -5814.4472219301 -4.32E-05
     2 OT DIIS     0.80E-01    0.7     0.00001179     -5814.4472279144 -5.98E-06
     3 OT DIIS     0.80E-01    0.8     0.00000990     -5814.4472297515 -1.84E-06

  *** SCF run converged in     3 steps ***


  Electronic density on regular grids:       -864.9999998618        0.0000001382
  Core density on regular grids:              864.9999999462       -0.0000000538
  Total charge density on r-space grids:        0.0000000844
  Total charge density g-space grids:           0.0000000844

  Overlap energy of the core charge distribution:               0.00000000094856
  Self energy of the core charge distribution:              -8775.68687729357589
  Core Hamiltonian energy:                                   2005.23101558865778
  Hartree energy:                                            1510.50542016308236
  Exchange-correlation energy:                               -554.49678821065265

  Total energy:                                             -5814.44722975154127

  outer SCF iter =    5 RMS gradient =   0.99E-05 energy =      -5814.4472297515
  outer SCF loop converged in   5 iterations or  203 steps


  Integrated absolute spin density  :                               1.9387498908
  Ideal and single determinant S**2 :                    0.750000       1.415674

 ENERGY| Total FORCE_EVAL ( QS ) energy [a.u.]:            -5814.447239200581862

 Spin 1

 Number of electrons:                                                        433
 Number of occupied orbitals:                                                433
 Number of molecular orbitals:                                               433

 Spin 2

 Number of electrons:                                                        432
 Number of occupied orbitals:                                                432
 Number of molecular orbitals:                                               432

 Number of orbital functions:                                                917
 Number of independent orbital functions:                                    917

 Parameters for the always stable predictor-corrector (ASPC) method:

  ASPC order: 0

  B(1) =   1.000000

 Parameters for the always stable predictor-corrector (ASPC) method:

  ASPC order: 0

  B(1) =   1.000000

 Extrapolation method: ASPC


 SCF WAVEFUNCTION OPTIMIZATION

  ----------------------------------- OT ---------------------------------------
  Minimizer      : DIIS                : direct inversion
                                         in the iterative subspace
                                         using   7 DIIS vectors
                                         safer DIIS on
  Preconditioner : FULL_SINGLE_INVERSE : inversion of 
                                         H + eS - 2*(Sc)(c^T*H*c+const)(Sc)^T
  Precond_solver : DEFAULT
  stepsize       :    0.08000000                  energy_gap     :    0.08000000
  eps_taylor     :   0.10000E-15                  max_taylor     :             4
  ----------------------------------- OT ---------------------------------------

  Step     Update method      Time    Convergence         Total energy    Change
  ------------------------------------------------------------------------------
     1 OT DIIS     0.80E-01    0.6     0.00062049     -5814.3671430173 -5.81E+03
     2 OT DIIS     0.80E-01    0.8     0.00047305     -5814.3857942703 -1.87E-02
     3 OT DIIS     0.80E-01    0.8     0.00041650     -5814.3954542324 -9.66E-03
     4 OT DIIS     0.80E-01    0.8     0.00038204     -5814.4074811144 -1.20E-02
     5 OT DIIS     0.80E-01    0.8     0.00032049     -5814.4132349244 -5.75E-03
     6 OT DIIS     0.80E-01    0.8     0.00017502     -5814.4182236298 -4.99E-03
     7 OT DIIS     0.80E-01    0.8     0.00019041     -5814.4210800412 -2.86E-03
     8 OT DIIS     0.80E-01    0.8     0.00012224     -5814.4225639419 -1.48E-03
     9 OT DIIS     0.80E-01    0.8     0.00010109     -5814.4235529570 -9.89E-04
    10 OT DIIS     0.80E-01    0.8     0.00008253     -5814.4239534528 -4.00E-04
    11 OT DIIS     0.80E-01    0.8     0.00007234     -5814.4243146781 -3.61E-04
    12 OT DIIS     0.80E-01    0.8     0.00006435     -5814.4246500375 -3.35E-04
    13 OT DIIS     0.80E-01    0.8     0.00006930     -5814.4249798244 -3.30E-04
    14 OT DIIS     0.80E-01    0.8     0.00005658     -5814.4252286698 -2.49E-04
    15 OT DIIS     0.80E-01    0.8     0.00005036     -5814.4255545423 -3.26E-04
    16 OT DIIS     0.80E-01    0.8     0.00004633     -5814.4257587561 -2.04E-04
    17 OT DIIS     0.80E-01    0.8     0.00004285     -5814.4259771401 -2.18E-04
    18 OT DIIS     0.80E-01    0.8     0.00004251     -5814.4261676469 -1.91E-04
    19 OT DIIS     0.80E-01    0.9     0.00004011     -5814.4263736096 -2.06E-04
    20 OT DIIS     0.80E-01    0.9     0.00003749     -5814.4265637809 -1.90E-04
    21 OT DIIS     0.80E-01    0.9     0.00003655     -5814.4267378743 -1.74E-04
    22 OT DIIS     0.80E-01    0.9     0.00003331     -5814.4268183328 -8.05E-05
    23 OT DIIS     0.80E-01    0.9     0.00003027     -5814.4269505789 -1.32E-04
    24 OT DIIS     0.80E-01    0.9     0.00002942     -5814.4270498168 -9.92E-05
    25 OT DIIS     0.80E-01    0.9     0.00002826     -5814.4271767586 -1.27E-04
    26 OT DIIS     0.80E-01    0.9     0.00002757     -5814.4272856397 -1.09E-04
    27 OT DIIS     0.80E-01    0.9     0.00002605     -5814.4273976188 -1.12E-04
    28 OT DIIS     0.80E-01    0.9     0.00002477     -5814.4274889982 -9.14E-05
    29 OT DIIS     0.80E-01    0.9     0.00002414     -5814.4275910533 -1.02E-04
    30 OT DIIS     0.80E-01    0.9     0.00002413     -5814.4276456495 -5.46E-05
    31 OT DIIS     0.80E-01    0.9     0.00002210     -5814.4277470353 -1.01E-04
    32 OT DIIS     0.80E-01    0.9     0.00002154     -5814.4278226762 -7.56E-05
    33 OT DIIS     0.80E-01    0.9     0.00002011     -5814.4279035758 -8.09E-05
    34 OT DIIS     0.80E-01    0.9     0.00001941     -5814.4279630053 -5.94E-05
    35 OT DIIS     0.80E-01    0.9     0.00001854     -5814.4280232238 -6.02E-05
    36 OT DIIS     0.80E-01    0.9     0.00001821     -5814.4280762376 -5.30E-05
    37 OT DIIS     0.80E-01    0.9     0.00001774     -5814.4281407804 -6.45E-05
    38 OT DIIS     0.80E-01    0.9     0.00001808     -5814.4281754408 -3.47E-05
    39 OT DIIS     0.80E-01    0.9     0.00001628     -5814.4282269587 -5.15E-05
    40 OT DIIS     0.80E-01    0.9     0.00001583     -5814.4282624159 -3.55E-05
    41 OT DIIS     0.80E-01    0.9     0.00001509     -5814.4282987531 -3.63E-05
    42 OT DIIS     0.80E-01    0.9     0.00001487     -5814.4283304198 -3.17E-05
    43 OT DIIS     0.80E-01    0.9     0.00001448     -5814.4283655440 -3.51E-05
    44 OT DIIS     0.80E-01    0.9     0.00001428     -5814.4283986064 -3.31E-05
    45 OT DIIS     0.80E-01    0.9     0.00001387     -5814.4284364713 -3.79E-05
    46 OT DIIS     0.80E-01    0.9     0.00001394     -5814.4284585932 -2.21E-05
    47 OT DIIS     0.80E-01    0.9     0.00001314     -5814.4284878350 -2.92E-05
    48 OT DIIS     0.80E-01    0.9     0.00001301     -5814.4285140369 -2.62E-05
[...]
 flops   112 x    32 x    38          46866935808     100.0%      0.0%      0.0%
 flops   112 x    64 x    38          46866935808     100.0%      0.0%      0.0%
 flops   113 x    32 x    38          47285390592     100.0%      0.0%      0.0%
 flops   113 x    64 x    38          47285390592     100.0%      0.0%      0.0%
 flops   228 x    32 x    38          49625174016     100.0%      0.0%      0.0%
 flops   228 x    64 x    38          49625174016     100.0%      0.0%      0.0%
 flops   209 x    32 x    57          49625174016     100.0%      0.0%      0.0%
 flops   209 x    64 x    57          49625174016     100.0%      0.0%      0.0%
 flops   233 x    64 x    38          50713445376     100.0%      0.0%      0.0%
 flops   233 x    32 x    38          50713445376     100.0%      0.0%      0.0%
 flops   112 x    32 x    57          51127566336     100.0%      0.0%      0.0%
 flops   112 x    64 x    57          51127566336     100.0%      0.0%      0.0%
 flops   113 x    32 x    57          51584062464     100.0%      0.0%      0.0%
 flops   113 x    64 x    57          51584062464     100.0%      0.0%      0.0%
 flops   247 x    32 x    38          53760605184     100.0%      0.0%      0.0%
 flops   247 x    64 x    38          53760605184     100.0%      0.0%      0.0%
 flops   228 x    32 x    57          54136553472     100.0%      0.0%      0.0%
 flops   228 x    64 x    57          54136553472     100.0%      0.0%      0.0%
 flops   233 x    64 x    57          55323758592     100.0%      0.0%      0.0%
 flops   233 x    32 x    57          55323758592     100.0%      0.0%      0.0%
 flops   247 x    32 x    57          58647932928     100.0%      0.0%      0.0%
 flops   247 x    64 x    57          58647932928     100.0%      0.0%      0.0%
 flops   113 x    32 x    32          99461406720     100.0%      0.0%      0.0%
 flops   113 x    64 x    32          99461406720     100.0%      0.0%      0.0%
 flops   112 x    32 x    32         101515395072     100.0%      0.0%      0.0%
 flops   112 x    64 x    32         101515395072     100.0%      0.0%      0.0%
 flops   128 x    64 x    38         107124424704     100.0%      0.0%      0.0%
 flops   128 x    32 x    38         107124424704     100.0%      0.0%      0.0%
 flops   128 x    64 x    57         116863008768     100.0%      0.0%      0.0%
 flops   128 x    32 x    57         116863008768     100.0%      0.0%      0.0%
 flops    96 x    32 x    38         160686637056     100.0%      0.0%      0.0%
 flops    96 x    64 x    38         160686637056     100.0%      0.0%      0.0%
 flops    96 x    32 x    57         175294513152     100.0%      0.0%      0.0%
 flops    96 x    64 x    57         175294513152     100.0%      0.0%      0.0%
 flops   209 x    32 x    32         216544813056     100.0%      0.0%      0.0%
 flops   209 x    64 x    32         216544813056     100.0%      0.0%      0.0%
 flops   128 x    64 x    32         228681842688     100.0%      0.0%      0.0%
 flops   128 x    32 x    32         228681842688     100.0%      0.0%      0.0%
 flops   228 x    32 x    32         236230705152     100.0%      0.0%      0.0%
 flops   228 x    64 x    32         236230705152     100.0%      0.0%      0.0%
 flops   233 x    64 x    32         241411203072     100.0%      0.0%      0.0%
 flops   233 x    32 x    32         241411203072     100.0%      0.0%      0.0%
 flops   247 x    32 x    32         255916597248     100.0%      0.0%      0.0%
 flops   247 x    64 x    32         255916597248     100.0%      0.0%      0.0%
 flops    96 x    32 x    32         343022764032     100.0%      0.0%      0.0%
 flops    96 x    64 x    32         343022764032     100.0%      0.0%      0.0%
 flops    19 x    19 x    32         498031672320     100.0%      0.0%      0.0%
 flops    19 x    32 x    19        2023440187392     100.0%      0.0%      0.0%
 flops inhomo. stacks                           0       0.0%      0.0%      0.0%
 flops total                         9.483036E+12     100.0%      0.0%      0.0%
 flops max/rank                    374.359388E+09     100.0%      0.0%      0.0%
 matmuls inhomo. stacks                         0       0.0%      0.0%      0.0%
 matmuls total                          138140416     100.0%      0.0%      0.0%
 number of processed stacks              19669980     100.0%      0.0%      0.0%
 average stack size                                     7.0       0.0       0.0
 marketing flops                    10.020485E+12
 -------------------------------------------------------------------------------
 # multiplications                          28742
 max memory usage/rank             780.230656E+06
 # max total images/rank                        5
 # max 3D layers                                1
 # MPI messages exchanged                37939440
 MPI messages size (bytes):
  total size                       971.052548E+09
  min size                           0.000000E+00
  max size                         112.632000E+03
  average size                      25.594805E+03
 MPI breakdown and total messages size (bytes):
             size <=      128             7660260                        0
       128 < size <=     8192             4598766              36311758728
      8192 < size <=    32768            16084632             335884910208
     32768 < size <=   131072             9595782             599228833968
    131072 < size <=  4194304                   0                        0
   4194304 < size <= 16777216                   0                        0
  16777216 < size                               0                        0
 -------------------------------------------------------------------------------

 *** WARNING in dbcsr_mm.F:294 :: Using a non-square number of MPI ranks ***
 *** might lead to poor performance. Used ranks: 40 Suggested: 36 81     ***

 -------------------------------------------------------------------------------
 -                                                                             -
 -                      DBCSR MESSAGE PASSING PERFORMANCE                      -
 -                                                                             -
 -------------------------------------------------------------------------------
 ROUTINE             CALLS      AVE VOLUME [Bytes]
 MP_Bcast              222                     12.
 MP_Allreduce       154596                     10.
 MP_Alltoall         92679                  17287.
 MP_ISend          2156738                  14550.
 MP_IRecv          2129354                  13589.
 -------------------------------------------------------------------------------

 -------------------------------------------------------------------------------
 -                                                                             -
 -                                GRID STATISTICS                              -
 -                                                                             -
 -------------------------------------------------------------------------------
 LP    KERNEL             BACKEND                              COUNT     PERCENT
 4     collocate general  REF                               36175108      48.83%
 4     integrate general  REF                               35421126      47.81%
 7     integrate general  REF                                 700338       0.95%
 2     collocate general  REF                                 682326       0.92%
 2     integrate general  REF                                 668010       0.90%
 3     integrate general  REF                                 178052       0.24%
 3     collocate general  REF                                 155524       0.21%
 0     collocate general  REF                                  48912       0.07%
 0     integrate general  REF                                  21024       0.03%
 5     integrate general  REF                                  13290       0.02%
 1     collocate general  REF                                  10736       0.01%
 1     integrate general  REF                                  10512       0.01%
 6     integrate general  REF                                   3120       0.00%
 -------------------------------------------------------------------------------

 MEMORY| Estimated peak process memory [MiB]                                 745

 -------------------------------------------------------------------------------
 ----                             MULTIGRID INFO                            ----
 -------------------------------------------------------------------------------
 count for grid        1:         189275          cutoff [a.u.]          170.00
 count for grid        2:         217220          cutoff [a.u.]           56.67
 count for grid        3:         212736          cutoff [a.u.]           18.89
 count for grid        4:          83851          cutoff [a.u.]            6.30
 total gridlevel count  :         703082

 -------------------------------------------------------------------------------
 -                                                                             -
 -                         MESSAGE PASSING PERFORMANCE                         -
 -                                                                             -
 -------------------------------------------------------------------------------

 ROUTINE             CALLS      AVE VOLUME [Bytes]
 MP_Group                4
 MP_Bcast            45021                  11312.
 MP_Allreduce       120554                    381.
 MP_Sync              1436
 MP_Alltoall         18313                1133798.
 MP_ISendRecv       313794                  53067.
 MP_Wait            457371
 MP_comm_split         716
 MP_ISend           130032                 184762.
 MP_IRecv           130032                 184759.
 MP_Recv              1092                 234752.
 -------------------------------------------------------------------------------


 -------------------------------------------------------------------------------
 -                                                                             -
 -                           R E F E R E N C E S                               -
 -                                                                             -
 -------------------------------------------------------------------------------
 
 CP2K version 9.1, the CP2K developers group (2021).
 CP2K is freely available from https://www.cp2k.org/ .

 Kuehne,Thomas D.; Iannuzzi,Marcella; Del Ben,Mauro;
 Rybkin,Vladimir V.; Seewald,Patrick; Stein,Frederick; Laino,Teodoro;
 Khaliullin,Rustam Z.; Schuett,Ole; Schiffmann,Florian; Golze,Dorothea;
 Wilhelm,Jan; Chulkov,Sergey; Bani-Hashemian,Mohammad Hossein;
 Weber,Valery; Borstnik,Urban; Taillefumier,Mathieu;
 Jakobovits,Alice Shoshana; Lazzaro,Alfio; Pabst,Hans; Mueller,Tiziano;
 Schade,Robert; Guidon,Manuel; Andermatt,Samuel; Holmberg,Nico;
 Schenter,Gregory K.; Hehn,Anna; Bussy,Augustin; Belleflamme,Fabian;
 Tabacchi,Gloria; Gloess,Andreas; Lass,Michael; Bethune,Iain;
 Mundy,Christopher J.; Plessl,Christian; Watkins,Matt;
 VandeVondele,Joost; Krack,Matthias; Hutter,Juerg. 
 The Journal of Chemical Physics, 152 (19), (2020). 
 CP2K: An electronic structure and molecular dynamics software package -
 Quickstep: Efficient and accurate electronic structure calculations.
 https://doi.org/10.1063/5.0007045

 Schuett, Ole; Messmer, Peter; Hutter, Juerg; VandeVondele, Joost. 
 Electronic Structure Calculations on Graphics Processing Units, John
 Wiley & Sons, Ltd, 173-190 (2016). 
 GPU-Accelerated Sparse Matrix-Matrix Multiplication for
 Linear Scaling Density Functional Theory.
 https://doi.org/10.1002/9781118670712.ch8

 Borstnik, U; VandeVondele, J; Weber, V; Hutter, J. 
 PARALLEL COMPUTING, 40 (5-6), 47-58 (2014). 
 Sparse matrix multiplication: The distributed block-compressed sparse
 row library.
 https://doi.org/10.1016/j.parco.2014.03.012

 Hutter, J; Iannuzzi, M; Schiffmann, F; VandeVondele, J. 
 WIREs Comput Mol Sci., 4 (1), 15-25 (2014). 
 CP2K: atomistic simulations of condensed matter systems.
 https://doi.org/10.1002/wcms.1159

 Kuhne, TD; Krack, M; Mohamed, FR; Parrinello, M. 
 PHYSICAL REVIEW LETTERS, 98 (6), 066401 (2007). 
 Efficient and accurate Car-Parrinello-like approach to
 Born-Oppenheimer molecular dynamics.
 https://doi.org/10.1103/PhysRevLett.98.066401

 Krack, M. 
 THEORETICAL CHEMISTRY ACCOUNTS, 114 (1-3), 145-152 (2005). 
 Pseudopotentials for H to Kr optimized for gradient-corrected
 exchange-correlation functionals.
 https://doi.org/10.1007/s00214-005-0655-y

 VandeVondele, J; Krack, M; Mohamed, F; Parrinello, M; Chassaing, T;
 Hutter, J. COMPUTER PHYSICS COMMUNICATIONS, 167 (2), 103-128 (2005). 
 QUICKSTEP: Fast and accurate density functional calculations using a
 mixed Gaussian and plane waves approach.
 https://doi.org/10.1016/j.cpc.2004.12.014

 Frigo, M; Johnson, SG. 
 PROCEEDINGS OF THE IEEE, 93 (2), 216-231 (2005). 
 The design and implementation of FFTW3.
 https://doi.org/10.1109/JPROC.2004.840301

 Kolafa, J. 
 JOURNAL OF COMPUTATIONAL CHEMISTRY, 25 (3), 335-342 (2004). 
 Time-reversible always stable predictor-corrector method for
 molecular dynamics of polarizable molecules.
 https://doi.org/10.1002/jcc.10385

 VandeVondele, J; Hutter, J. 
 JOURNAL OF CHEMICAL PHYSICS, 118 (10), 4365-4369 (2003). 
 An efficient orbital transformation method for electronic structure
 calculations.
 https://doi.org/10.1063/1.1543154

 Hartwigsen, C; Goedecker, S; Hutter, J. 
 PHYSICAL REVIEW B, 58 (7), 3641-3662 (1998). 
 Relativistic separable dual-space Gaussian pseudopotentials from H to Rn.
 https://doi.org/10.1103/PhysRevB.58.3641

 Lippert, G; Hutter, J; Parrinello, M. 
 MOLECULAR PHYSICS, 92 (3), 477-487 (1997). 
 A hybrid Gaussian and plane wave density functional scheme.
 https://doi.org/10.1080/002689797170220

 Goedecker, S; Teter, M; Hutter, J. 
 PHYSICAL REVIEW B, 54 (3), 1703-1710 (1996). 
 Separable dual-space Gaussian pseudopotentials.
 https://doi.org/10.1103/PhysRevB.54.1703

 BYRD, RH; LU, PH; NOCEDAL, J; ZHU, CY. 
 SIAM JOURNAL ON SCIENTIFIC COMPUTING, 16 (5), 1190-1208 (1995). 
 A LIMITED MEMORY ALGORITHM FOR BOUND CONSTRAINED OPTIMIZATION.
 https://doi.org/10.1137/0916069


 -------------------------------------------------------------------------------
 -                                                                             -
 -                                T I M I N G                                  -
 -                                                                             -
 -------------------------------------------------------------------------------
 SUBROUTINE                       CALLS  ASD         SELF TIME        TOTAL TIME
                                MAXIMUM       AVERAGE  MAXIMUM  AVERAGE  MAXIMUM
 CP2K                                 1  1.0    0.079    0.083  568.171  568.171
 cp_geo_opt                           1  2.0    0.000    0.000  567.738  567.740
 geoopt_lbfgs                         1  3.0    0.000    0.000  567.738  567.740
 cp_eval_at                          14  4.9    0.002    0.002  567.671  567.671
 qs_energies                         14  6.9    0.002    0.009  553.877  553.880
 cp_opt_gopt_step                     5  4.0    0.001    0.009  550.189  550.189
 qs_forces                           13  6.0    0.002    0.002  550.118  550.119
 scf_env_do_scf                      14  7.9    0.002    0.012  546.116  546.117
 scf_env_do_scf_inner_loop          657  8.9    0.014    0.044  535.485  535.622
 rebuild_ks_matrix                  670 10.9    0.002    0.003  249.771  250.005
 qs_ks_build_kohn_sham_matrix       670 11.9    0.082    0.096  249.768  250.002
 qs_ks_update_qs_env                678  9.9    0.005    0.006  239.773  240.002
 sum_up_and_integrate               670 12.9    0.715    0.863  223.973  224.000
 integrate_v_rspace                1340 13.9    0.025    0.030  223.255  223.312
 qs_rho_update_rho                  671 10.0    0.005    0.005  206.530  206.548
 calculate_rho_elec                1342 11.0    0.643    0.778  206.525  206.544
 grid_collocate_task_list          1342 12.0  136.807  141.710  136.807  141.710
 grid_integrate_task_list          1340 14.9  126.921  131.773  126.921  131.773
 rs_pw_transfer                   10755 14.4    0.089    0.106  122.608  126.000
 qs_scf_new_mos                     657  9.9    0.004    0.004  100.274  100.579
 qs_scf_loop_do_ot                  657 10.9    0.009    0.018  100.270  100.575
 ot_scf_mini                        657 11.9    0.032    0.052   96.455   96.648
 potential_pw2rs                   1340 14.9    0.169    0.192   90.301   90.403
 dbcsr_multiply_generic           28742 15.0    1.398    1.478   72.073   72.958
 density_rs2pw                     1342 12.0    0.072    0.082   67.915   71.153
 rs_pw_transfer_PW2RS_170          1353 16.8   23.563   23.934   66.664   67.042
 ot_mini                            657 12.9    0.007    0.007   44.588   44.854
 multiply_cannon                  28742 16.0    2.641    2.837   39.186   43.492
 qs_ot_get_p                       1356 12.9    0.010    0.013   40.140   40.597
 pw_transfer                      14094 14.1    0.909    1.036   39.800   39.996
 fft_wrap_pw1pw2                  12754 15.2    0.077    0.087   38.418   38.619
 rs_pw_transfer_RS2PW_170          1356 13.9   20.718   22.239   35.268   38.541
 qs_ot_get_derivative              1314 13.9    0.012    0.013   38.039   38.179
 multiply_cannon_loop             28742 17.0    3.040    3.451   32.337   36.514
 fft_wrap_pw1pw2_170               4708 15.8    3.057    3.580   33.763   34.205
 qs_ot_p2m_diag                     716 14.0    0.266    0.427   32.521   32.802
 rs_grid_zero                      1367 17.8   30.883   31.178   30.883   31.178
 fft3d_ps                         12754 17.2   16.891   18.679   30.773   31.155
 cp_dbcsr_syevd                     716 15.0    0.046    0.055   29.274   29.288
 mp_waitall_1                   2396763 18.8   22.951   27.213   22.951   27.213
 mp_waitany                      130032 16.4   19.823   26.020   19.823   26.020
 cp_fm_syevd                        716 16.0    0.004    0.007   23.856   23.896
 make_m2s                         57484 16.0    1.088    1.196   20.302   20.939
 cp_fm_redistribute_end             716 17.0   15.122   18.877   15.178   18.901
 cp_fm_syevd_base                   716 17.0    3.709   18.580    3.709   18.580
 multiply_cannon_metrocomm3      574840 18.0    0.991    1.048   13.028   17.574
 qs_ot_get_derivative_diag          695 15.0    0.018    0.020   15.319   15.388
 make_images                      57484 17.0    1.622    1.806   14.111   14.697
 qs_ot_get_derivative_taylor        619 14.9    0.023    0.028   13.152   13.220
 multiply_cannon_multrec         574840 18.0    8.505   12.970    8.633   13.107
 qs_vxc_create                      670 12.9    0.013    0.018   11.953   12.064
 xc_vxc_pw_create                   670 13.9    0.237    0.299   11.941   12.052
 xc_rho_set_and_dset_create         670 14.9    0.040    0.047    7.830   11.408
 mp_alltoall_z22v                 12754 19.2   10.360   11.382   10.360   11.382
 -------------------------------------------------------------------------------

 The number of warnings for this run is : 1
 
 -------------------------------------------------------------------------------
  **** **** ******  **  PROGRAM ENDED AT                 2022-06-15 22:01:07.405
 ***** ** ***  *** **   PROGRAM RAN ON               Orion-01-54.HPC.MsState.Edu
 **    ****   ******    PROGRAM RAN BY                                     wnw36
 ***** **    ** ** **   PROGRAM PROCESS ID                                415693
  **** **  *******  **  PROGRAM STOPPED IN /work/hpc/users/wnw36/MSU-DFT-Catalys
                                           is-School/5_NEB/1_O-Diffusion/Pt/2_pr
                                           oduct
