      49
 i =        1, E =     -5814.4599768487
 Pt         0.0000000000        0.0000000000        0.0000000000
 Pt         0.0000000000        0.0000000000        0.0000000000
 Pt         0.0000000000        0.0000000000        0.0000000000
 Pt         0.0000000000        0.0000000000        0.0000000000
 Pt         0.0000000000        0.0000000000        0.0000000000
 Pt         0.0000000000        0.0000000000        0.0000000000
 Pt         0.0000000000        0.0000000000        0.0000000000
 Pt         0.0000000000        0.0000000000        0.0000000000
 Pt         0.0000000000        0.0000000000        0.0000000000
 Pt         0.0000000000        0.0000000000        0.0000000000
 Pt         0.0000000000        0.0000000000        0.0000000000
 Pt         0.0000000000        0.0000000000        0.0000000000
 Pt         0.0000000000        0.0000000000        0.0000000000
 Pt         0.0000000000        0.0000000000        0.0000000000
 Pt         0.0000000000        0.0000000000        0.0000000000
 Pt         0.0000000000        0.0000000000        0.0000000000
 Pt         0.0021462307        0.0018386295        0.0069557300
 Pt         0.0002386698       -0.0008903501       -0.0003894726
 Pt        -0.0005864668        0.0004164958       -0.0002019307
 Pt         0.0002264468       -0.0011160701        0.0052807688
 Pt         0.0002445971       -0.0014290448        0.0032297963
 Pt         0.0000053997       -0.0005487156        0.0006741880
 Pt        -0.0017049150        0.0014483685        0.0080879000
 Pt        -0.0013318000        0.0009790667        0.0027743161
 Pt         0.0000420197       -0.0003068561        0.0031515070
 Pt         0.0006025502       -0.0005644640        0.0031693015
 Pt         0.0003058448       -0.0007798611        0.0023409749
 Pt        -0.0006030572        0.0002039899        0.0011310929
 Pt        -0.0000015418       -0.0001773895       -0.0009248317
 Pt        -0.0002246730        0.0000443285        0.0020718151
 Pt         0.0011451988        0.0003254988        0.0025510955
 Pt        -0.0003435550       -0.0013120077        0.0035568030
 Pt         0.0002569792        0.0005093636        0.0001851412
 Pt         0.0061384025       -0.0003314237       -0.0012170983
 Pt         0.0017683495        0.0042981679       -0.0018560376
 Pt        -0.0018871627        0.0036412700        0.0033944732
 Pt         0.0040287067       -0.0023357080        0.0035211963
 Pt         0.0034531238       -0.0049678106       -0.0006258927
 Pt        -0.0002683773       -0.0019870876        0.0033054850
 Pt        -0.0027084431       -0.0042826523       -0.0019969242
 Pt         0.0004107822       -0.0012777960        0.0026334145
 Pt         0.0024238703        0.0030080798        0.0026022531
 Pt        -0.0024315568        0.0051977659       -0.0019904206
 Pt        -0.0058942036       -0.0003184202       -0.0017623637
 Pt        -0.0040211706       -0.0027055929        0.0035136379
 Pt         0.0010594061        0.0011398389        0.0019623544
 Pt         0.0002207043        0.0004835783        0.0013776895
 Pt        -0.0010559695        0.0005589476        0.0018155264
  H        -0.0001075370        0.0005751015       -0.0044496188
      49
 i =        2, E =     -5814.4625901140
 Pt         0.0000000000        0.0000000000        0.0000000000
 Pt         0.0000000000        0.0000000000        0.0000000000
 Pt         0.0000000000        0.0000000000        0.0000000000
 Pt         0.0000000000        0.0000000000        0.0000000000
 Pt         0.0000000000        0.0000000000        0.0000000000
 Pt         0.0000000000        0.0000000000        0.0000000000
 Pt         0.0000000000        0.0000000000        0.0000000000
 Pt         0.0000000000        0.0000000000        0.0000000000
 Pt         0.0000000000        0.0000000000        0.0000000000
 Pt         0.0000000000        0.0000000000        0.0000000000
 Pt         0.0000000000        0.0000000000        0.0000000000
 Pt         0.0000000000        0.0000000000        0.0000000000
 Pt         0.0000000000        0.0000000000        0.0000000000
 Pt         0.0000000000        0.0000000000        0.0000000000
 Pt         0.0000000000        0.0000000000        0.0000000000
 Pt         0.0000000000        0.0000000000        0.0000000000
 Pt         0.0019151501        0.0009517236        0.0028308773
 Pt         0.0005308146        0.0001313372        0.0001965593
 Pt        -0.0000440951        0.0001983424        0.0006805020
 Pt         0.0000168190       -0.0022577704        0.0025669999
 Pt         0.0001801451       -0.0003360868        0.0012259598
 Pt        -0.0002958942       -0.0005487179        0.0013447069
 Pt        -0.0020940807        0.0009121685        0.0034837331
 Pt        -0.0008450420        0.0005204872        0.0011616454
 Pt         0.0001866028       -0.0006678206        0.0028118217
 Pt         0.0002146220       -0.0002976076        0.0017047827
 Pt         0.0000775216        0.0002244218        0.0018857729
 Pt         0.0003046801       -0.0004115077        0.0014378294
 Pt        -0.0004593971        0.0000426647        0.0005170171
 Pt        -0.0001015457        0.0006107217        0.0019646040
 Pt         0.0007506710       -0.0000273974        0.0012059575
 Pt        -0.0000540050       -0.0001910266        0.0015756406
 Pt         0.0001755919        0.0004811239       -0.0012379731
 Pt         0.0014143760        0.0003027851       -0.0001349639
 Pt         0.0007734306        0.0009517992       -0.0001130055
 Pt        -0.0017268849        0.0020277170        0.0018891162
 Pt         0.0017721974       -0.0007344844        0.0029119882
 Pt         0.0005207526       -0.0017168104       -0.0005634957
 Pt        -0.0000358685       -0.0010319619        0.0030380267
 Pt         0.0000325446       -0.0017002964       -0.0009581956
 Pt         0.0002017799       -0.0003061091        0.0014585104
 Pt         0.0020711781        0.0016194151        0.0016261210
 Pt        -0.0012021348        0.0012581105       -0.0002473517
 Pt        -0.0012771250        0.0005330306       -0.0002975164
 Pt        -0.0019822033       -0.0010609672        0.0029711417
 Pt        -0.0010896570        0.0004221950        0.0016847209
 Pt         0.0000892893       -0.0008691614        0.0011660641
 Pt         0.0009329458        0.0000062212        0.0014752020
  H        -0.0000505641        0.0003312186       -0.0011535957
      49
 i =        3, E =     -5814.4638632844
 Pt         0.0000000000        0.0000000000        0.0000000000
 Pt         0.0000000000        0.0000000000        0.0000000000
 Pt         0.0000000000        0.0000000000        0.0000000000
 Pt         0.0000000000        0.0000000000        0.0000000000
 Pt         0.0000000000        0.0000000000        0.0000000000
 Pt         0.0000000000        0.0000000000        0.0000000000
 Pt         0.0000000000        0.0000000000        0.0000000000
 Pt         0.0000000000        0.0000000000        0.0000000000
 Pt         0.0000000000        0.0000000000        0.0000000000
 Pt         0.0000000000        0.0000000000        0.0000000000
 Pt         0.0000000000        0.0000000000        0.0000000000
 Pt         0.0000000000        0.0000000000        0.0000000000
 Pt         0.0000000000        0.0000000000        0.0000000000
 Pt         0.0000000000        0.0000000000        0.0000000000
 Pt         0.0000000000        0.0000000000        0.0000000000
 Pt         0.0000000000        0.0000000000        0.0000000000
 Pt         0.0006095177        0.0001547359        0.0001929214
 Pt         0.0003817056       -0.0005034692       -0.0001449780
 Pt        -0.0001093247        0.0006616634       -0.0001590174
 Pt         0.0002776545       -0.0009996283        0.0007463676
 Pt         0.0002991598        0.0001544535        0.0002091617
 Pt        -0.0004053877       -0.0002053663        0.0000524368
 Pt        -0.0003392195        0.0003341496        0.0000704563
 Pt         0.0002511276       -0.0007191398       -0.0001212385
 Pt        -0.0000485687        0.0005478150       -0.0000111529
 Pt        -0.0000050584        0.0003971860        0.0015491992
 Pt        -0.0004600194        0.0001917528       -0.0000225665
 Pt         0.0002960177       -0.0004221214        0.0000971702
 Pt        -0.0004587273       -0.0003599425       -0.0005015417
 Pt         0.0005424785        0.0002683745       -0.0003118870
 Pt        -0.0000870556       -0.0005481317       -0.0002002755
 Pt        -0.0002654268        0.0003282930       -0.0000823003
 Pt         0.0001895655       -0.0002896353       -0.0005829794
 Pt        -0.0011836569       -0.0002676060        0.0011923183
 Pt        -0.0007015866       -0.0001909052        0.0009357432
 Pt        -0.0011258653       -0.0006589590        0.0001256272
 Pt        -0.0011055478        0.0001544619        0.0013772647
 Pt         0.0005129973        0.0010193023        0.0004630553
 Pt         0.0001342931        0.0015256674        0.0011147800
 Pt        -0.0004948077        0.0008649412        0.0004403610
 Pt        -0.0000843079       -0.0006786747        0.0005307152
 Pt         0.0011551545       -0.0005801611        0.0005987097
 Pt         0.0006786689       -0.0003731486        0.0010444965
 Pt         0.0011476515       -0.0001852841        0.0011565634
 Pt         0.0011948272        0.0002647851        0.0015322238
 Pt         0.0006409382       -0.0007505483        0.0011345006
 Pt        -0.0002311540        0.0005320185        0.0013052894
 Pt        -0.0006278879       -0.0005150882        0.0010154317
  H        -0.0000555652        0.0000392910        0.0016915311
      49
 i =        4, E =     -5814.4641184692
 Pt         0.0000000000        0.0000000000        0.0000000000
 Pt         0.0000000000        0.0000000000        0.0000000000
 Pt         0.0000000000        0.0000000000        0.0000000000
 Pt         0.0000000000        0.0000000000        0.0000000000
 Pt         0.0000000000        0.0000000000        0.0000000000
 Pt         0.0000000000        0.0000000000        0.0000000000
 Pt         0.0000000000        0.0000000000        0.0000000000
 Pt         0.0000000000        0.0000000000        0.0000000000
 Pt         0.0000000000        0.0000000000        0.0000000000
 Pt         0.0000000000        0.0000000000        0.0000000000
 Pt         0.0000000000        0.0000000000        0.0000000000
 Pt         0.0000000000        0.0000000000        0.0000000000
 Pt         0.0000000000        0.0000000000        0.0000000000
 Pt         0.0000000000        0.0000000000        0.0000000000
 Pt         0.0000000000        0.0000000000        0.0000000000
 Pt         0.0000000000        0.0000000000        0.0000000000
 Pt        -0.0007022343       -0.0003361004       -0.0005990206
 Pt        -0.0000736368        0.0001028781       -0.0002224447
 Pt         0.0002769324       -0.0001388168        0.0000755488
 Pt        -0.0001049945        0.0002646426       -0.0008530577
 Pt        -0.0002160711        0.0006767441        0.0008405394
 Pt         0.0002178016       -0.0003215753        0.0009547300
 Pt         0.0002258460       -0.0002933708       -0.0001366925
 Pt        -0.0000514125        0.0003174438        0.0006629756
 Pt         0.0004295539       -0.0006290098        0.0007007820
 Pt        -0.0001071284       -0.0004792435       -0.0011165316
 Pt         0.0001058311        0.0002108220        0.0008109094
 Pt        -0.0000242927       -0.0003450246        0.0009240051
 Pt         0.0000872932       -0.0000201553        0.0005495113
 Pt        -0.0003136581        0.0000743130        0.0010714010
 Pt         0.0001475612       -0.0000168094        0.0008501163
 Pt         0.0005234732        0.0004059293        0.0014898545
 Pt         0.0000238724        0.0003579593       -0.0005227516
 Pt        -0.0007572284        0.0002147013        0.0003150154
 Pt        -0.0000603267       -0.0009076954        0.0001667193
 Pt         0.0009006451       -0.0002724738        0.0004556271
 Pt        -0.0003356191        0.0002017324        0.0000256699
 Pt        -0.0011374248        0.0003202192        0.0001279909
 Pt         0.0001658361       -0.0004753940        0.0006386057
 Pt         0.0011550215        0.0002185791        0.0006516238
 Pt         0.0000371299        0.0003597525       -0.0001724832
 Pt        -0.0007644707       -0.0003335784        0.0005644404
 Pt         0.0001283869       -0.0006238198        0.0000289940
 Pt         0.0004586576        0.0001244661        0.0004806455
 Pt        -0.0000240287        0.0001874127        0.0003597542
 Pt        -0.0010931732        0.0004594540        0.0009633121
 Pt        -0.0000142193       -0.0010780404        0.0004637395
 Pt         0.0010496755        0.0004625637        0.0009985925
  H        -0.0000567230        0.0001287353        0.0013756196
      49
 i =        5, E =     -5814.4636498886
 Pt         0.0000000000        0.0000000000        0.0000000000
 Pt         0.0000000000        0.0000000000        0.0000000000
 Pt         0.0000000000        0.0000000000        0.0000000000
 Pt         0.0000000000        0.0000000000        0.0000000000
 Pt         0.0000000000        0.0000000000        0.0000000000
 Pt         0.0000000000        0.0000000000        0.0000000000
 Pt         0.0000000000        0.0000000000        0.0000000000
 Pt         0.0000000000        0.0000000000        0.0000000000
 Pt         0.0000000000        0.0000000000        0.0000000000
 Pt         0.0000000000        0.0000000000        0.0000000000
 Pt         0.0000000000        0.0000000000        0.0000000000
 Pt         0.0000000000        0.0000000000        0.0000000000
 Pt         0.0000000000        0.0000000000        0.0000000000
 Pt         0.0000000000        0.0000000000        0.0000000000
 Pt         0.0000000000        0.0000000000        0.0000000000
 Pt         0.0000000000        0.0000000000        0.0000000000
 Pt        -0.0004321728       -0.0006627928       -0.0009910318
 Pt        -0.0002568615       -0.0003455921       -0.0001913767
 Pt         0.0001951562       -0.0002651359       -0.0006319054
 Pt         0.0003056933        0.0004718510       -0.0001030241
 Pt         0.0001826002        0.0005322642        0.0011754879
 Pt         0.0003733192       -0.0007085092        0.0014662806
 Pt        -0.0002650145       -0.0003466821       -0.0006684634
 Pt         0.0000042401        0.0007664919        0.0005085588
 Pt         0.0005394689       -0.0000735866        0.0003368669
 Pt        -0.0002854112       -0.0005442684       -0.0008568701
 Pt        -0.0002314136        0.0004664379        0.0007566044
 Pt        -0.0002567757       -0.0003653211        0.0014514110
 Pt         0.0002964050        0.0000431345        0.0004097106
 Pt         0.0000089532        0.0000344639        0.0012089814
 Pt         0.0001347915        0.0004875635        0.0007261400
 Pt         0.0000934372       -0.0001439676        0.0019014489
 Pt        -0.0001014222        0.0002687918       -0.0004146416
 Pt        -0.0008335339        0.0005531070        0.0007001748
 Pt        -0.0003115739       -0.0008552027       -0.0000142439
 Pt         0.0005538107        0.0000770318       -0.0002749212
 Pt        -0.0002916390        0.0006936635        0.0002916785
 Pt        -0.0011094182        0.0000031403        0.0000037973
 Pt        -0.0001535025       -0.0006213438        0.0008989729
 Pt         0.0008761582        0.0000316533        0.0008620620
 Pt         0.0002825183        0.0005341221       -0.0006998986
 Pt        -0.0007971520       -0.0006189539        0.0004665816
 Pt        -0.0000810498       -0.0003078479        0.0000115050
 Pt         0.0003837902        0.0009556085        0.0007053183
 Pt         0.0001436101        0.0003562035        0.0004033011
 Pt        -0.0009160158       -0.0008526694       -0.0001951836
 Pt        -0.0001043406       -0.0006758418        0.0008404170
 Pt         0.0007942874       -0.0005032342       -0.0000182912
  H         0.0001249769        0.0001189207        0.0012739749
      49
 i =        6, E =     -5814.4635858760
 Pt         0.0000000000        0.0000000000        0.0000000000
 Pt         0.0000000000        0.0000000000        0.0000000000
 Pt         0.0000000000        0.0000000000        0.0000000000
 Pt         0.0000000000        0.0000000000        0.0000000000
 Pt         0.0000000000        0.0000000000        0.0000000000
 Pt         0.0000000000        0.0000000000        0.0000000000
 Pt         0.0000000000        0.0000000000        0.0000000000
 Pt         0.0000000000        0.0000000000        0.0000000000
 Pt         0.0000000000        0.0000000000        0.0000000000
 Pt         0.0000000000        0.0000000000        0.0000000000
 Pt         0.0000000000        0.0000000000        0.0000000000
 Pt         0.0000000000        0.0000000000        0.0000000000
 Pt         0.0000000000        0.0000000000        0.0000000000
 Pt         0.0000000000        0.0000000000        0.0000000000
 Pt         0.0000000000        0.0000000000        0.0000000000
 Pt         0.0000000000        0.0000000000        0.0000000000
 Pt        -0.0004321728       -0.0006627928       -0.0009910318
 Pt        -0.0002568615       -0.0003455921       -0.0001913767
 Pt         0.0001951562       -0.0002651359       -0.0006319054
 Pt         0.0003056933        0.0004718510       -0.0001030241
 Pt         0.0001826002        0.0005322642        0.0011754879
 Pt         0.0003733192       -0.0007085092        0.0014662806
 Pt        -0.0002650145       -0.0003466821       -0.0006684634
 Pt         0.0000042401        0.0007664919        0.0005085588
 Pt         0.0005394689       -0.0000735866        0.0003368669
 Pt        -0.0002854112       -0.0005442684       -0.0008568701
 Pt        -0.0002314136        0.0004664379        0.0007566044
 Pt        -0.0002567757       -0.0003653211        0.0014514110
 Pt         0.0002964050        0.0000431345        0.0004097106
 Pt         0.0000089532        0.0000344639        0.0012089814
 Pt         0.0001347915        0.0004875635        0.0007261400
 Pt         0.0000934372       -0.0001439676        0.0019014489
 Pt        -0.0001014222        0.0002687918       -0.0004146416
 Pt        -0.0008335339        0.0005531070        0.0007001748
 Pt        -0.0003115739       -0.0008552027       -0.0000142439
 Pt         0.0005538107        0.0000770318       -0.0002749212
 Pt        -0.0002916390        0.0006936635        0.0002916785
 Pt        -0.0011094182        0.0000031403        0.0000037973
 Pt        -0.0001535025       -0.0006213438        0.0008989729
 Pt         0.0008761582        0.0000316533        0.0008620620
 Pt         0.0002825183        0.0005341221       -0.0006998986
 Pt        -0.0007971520       -0.0006189539        0.0004665816
 Pt        -0.0000810498       -0.0003078479        0.0000115050
 Pt         0.0003837902        0.0009556085        0.0007053183
 Pt         0.0001436101        0.0003562035        0.0004033011
 Pt        -0.0009160158       -0.0008526694       -0.0001951836
 Pt        -0.0001043406       -0.0006758418        0.0008404170
 Pt         0.0007942874       -0.0005032342       -0.0000182912
  H         0.0001249769        0.0001189207        0.0012739749
