 DBCSR| CPU Multiplication driver                                           XSMM
 DBCSR| Multrec recursion limit                                              512
 DBCSR| Multiplication stack size                                           1000
 DBCSR| Maximum elements for images                                    UNLIMITED
 DBCSR| Multiplicative factor virtual images                                   1
 DBCSR| Use multiplication densification                                       T
 DBCSR| Multiplication size stacks                                             3
 DBCSR| Use memory pool for CPU allocation                                     F
 DBCSR| OMP: Current number of threads                                        12
 DBCSR| OMP: Max number of threads                                            12
 DBCSR| Split modifier for TAS multiplication algorithm                  1.0E+00


  **** **** ******  **  PROGRAM STARTED AT               2022-06-06 07:48:26.418
 ***** ** ***  *** **   PROGRAM STARTED ON                                pop-os
 **    ****   ******    PROGRAM STARTED BY                         woodrowwilson
 ***** **    ** ** **   PROGRAM PROCESS ID                                  3356
  **** **  *******  **  PROGRAM STARTED IN /home/woodrowwilson/Documents/Worksho
                                           ps/MSU-DFT-Catalysis-School/1_Gas-Pha
                                           se-Molecules/2_O2/2_Spin-Polarized-Ge
                                           oOpt

 CP2K| version string:                                          CP2K version 9.1
 CP2K| source code revision number:                                  git:d8d7100
 CP2K| cp2kflags: omp libint fftw3 libxc xsmm plumed2 spglib libvori libbqb     
 CP2K| is freely available from                            https://www.cp2k.org/
 CP2K| Program compiled at                       Wed May 25 08:10:51 PM CDT 2022
 CP2K| Program compiled on                                                pop-os
 CP2K| Program compiled for                                PopOS-x86-64-gfortran
 CP2K| Data directory path            /home/woodrowwilson/Programs/cp2k/9.1/data
 CP2K| Input file name                                             cp2k-PADE.inp

 GLOBAL| Force Environment number                                              1
 GLOBAL| Basis set file name                                           BASIS_SET
 GLOBAL| Potential file name                                      GTH_POTENTIALS
 GLOBAL| MM Potential file name                                     MM_POTENTIAL
 GLOBAL| Coordinate file name                                      __STD_INPUT__
 GLOBAL| Method name                                                        CP2K
 GLOBAL| Project name                                                  O2-GeoOpt
 GLOBAL| Run type                                                        GEO_OPT
 GLOBAL| FFT library                                                       FFTW3
 GLOBAL| Diagonalization library                                       ScaLAPACK
 GLOBAL| Orthonormality check for eigenvectors                          DISABLED
 GLOBAL| Matrix multiplication library                                 ScaLAPACK
 GLOBAL| All-to-all communication in single precision                          F
 GLOBAL| FFTs using library dependent lengths                                  F
 GLOBAL| Grid backend                                                       AUTO
 GLOBAL| Global print level                                               MEDIUM
 GLOBAL| MPI I/O enabled                                                       T
 GLOBAL| Total number of message passing processes                             1
 GLOBAL| Number of threads for this process                                   12
 GLOBAL| This output is from process                                           0
 GLOBAL| Stack size for threads created by OpenMP (OMP_STACKSIZE)        default
 GLOBAL| CPU model name                 Intel(R) Core(TM) i7-9750H CPU @ 2.60GHz
 GLOBAL| CPUID                                                              1002

 MEMORY| system memory details [Kb]
 MEMORY|                        rank 0           min           max       average
 MEMORY| MemTotal             32580248      32580248      32580248      32580248
 MEMORY| MemFree              29243816      29243816      29243816      29243816
 MEMORY| Buffers                124920        124920        124920        124920
 MEMORY| Cached                1915924       1915924       1915924       1915924
 MEMORY| Slab                   194592        194592        194592        194592
 MEMORY| SReclaimable            93484         93484         93484         93484
 MEMORY| MemLikelyFree        31378144      31378144      31378144      31378144


 *** Fundamental physical constants (SI units) ***

 *** Literature: B. J. Mohr and B. N. Taylor,
 ***             CODATA recommended values of the fundamental physical
 ***             constants: 2006, Web Version 5.1
 ***             http://physics.nist.gov/constants

 Speed of light in vacuum [m/s]                             2.99792458000000E+08
 Magnetic constant or permeability of vacuum [N/A**2]       1.25663706143592E-06
 Electric constant or permittivity of vacuum [F/m]          8.85418781762039E-12
 Planck constant (h) [J*s]                                  6.62606896000000E-34
 Planck constant (h-bar) [J*s]                              1.05457162825177E-34
 Elementary charge [C]                                      1.60217648700000E-19
 Electron mass [kg]                                         9.10938215000000E-31
 Electron g factor [ ]                                     -2.00231930436220E+00
 Proton mass [kg]                                           1.67262163700000E-27
 Fine-structure constant                                    7.29735253760000E-03
 Rydberg constant [1/m]                                     1.09737315685270E+07
 Avogadro constant [1/mol]                                  6.02214179000000E+23
 Boltzmann constant [J/K]                                   1.38065040000000E-23
 Atomic mass unit [kg]                                      1.66053878200000E-27
 Bohr radius [m]                                            5.29177208590000E-11

 *** Conversion factors ***

 [u] -> [a.u.]                                              1.82288848426455E+03
 [Angstrom] -> [Bohr] = [a.u.]                              1.88972613288564E+00
 [a.u.] = [Bohr] -> [Angstrom]                              5.29177208590000E-01
 [a.u.] -> [s]                                              2.41888432650478E-17
 [a.u.] -> [fs]                                             2.41888432650478E-02
 [a.u.] -> [J]                                              4.35974393937059E-18
 [a.u.] -> [N]                                              8.23872205491840E-08
 [a.u.] -> [K]                                              3.15774647902944E+05
 [a.u.] -> [kJ/mol]                                         2.62549961709828E+03
 [a.u.] -> [kcal/mol]                                       6.27509468713739E+02
 [a.u.] -> [Pa]                                             2.94210107994716E+13
 [a.u.] -> [bar]                                            2.94210107994716E+08
 [a.u.] -> [atm]                                            2.90362800883016E+08
 [a.u.] -> [eV]                                             2.72113838565563E+01
 [a.u.] -> [Hz]                                             6.57968392072181E+15
 [a.u.] -> [1/cm] (wave numbers)                            2.19474631370540E+05
 [a.u./Bohr**2] -> [1/cm]                                   5.14048714338585E+03
 

 CELL_TOP| Volume [angstrom^3]:                                       512.000000
 CELL_TOP| Vector a [angstrom     8.000     0.000     0.000   |a| =     8.000000
 CELL_TOP| Vector b [angstrom     0.000     8.000     0.000   |b| =     8.000000
 CELL_TOP| Vector c [angstrom     0.000     0.000     8.000   |c| =     8.000000
 CELL_TOP| Angle (b,c), alpha [degree]:                                90.000000
 CELL_TOP| Angle (a,c), beta  [degree]:                                90.000000
 CELL_TOP| Angle (a,b), gamma [degree]:                                90.000000
 CELL_TOP| Numerically orthorhombic:                                         YES

 GENERATE|  Preliminary Number of Bonds generated:                             0
 GENERATE|  Achieved consistency in connectivity generation.

 CELL| Volume [angstrom^3]:                                           512.000000
 CELL| Vector a [angstrom]:       8.000     0.000     0.000   |a| =     8.000000
 CELL| Vector b [angstrom]:       0.000     8.000     0.000   |b| =     8.000000
 CELL| Vector c [angstrom]:       0.000     0.000     8.000   |c| =     8.000000
 CELL| Angle (b,c), alpha [degree]:                                    90.000000
 CELL| Angle (a,c), beta  [degree]:                                    90.000000
 CELL| Angle (a,b), gamma [degree]:                                    90.000000
 CELL| Numerically orthorhombic:                                             YES

 CELL_REF| Volume [angstrom^3]:                                       512.000000
 CELL_REF| Vector a [angstrom     8.000     0.000     0.000   |a| =     8.000000
 CELL_REF| Vector b [angstrom     0.000     8.000     0.000   |b| =     8.000000
 CELL_REF| Vector c [angstrom     0.000     0.000     8.000   |c| =     8.000000
 CELL_REF| Angle (b,c), alpha [degree]:                                90.000000
 CELL_REF| Angle (a,c), beta  [degree]:                                90.000000
 CELL_REF| Angle (a,b), gamma [degree]:                                90.000000
 CELL_REF| Numerically orthorhombic:                                         YES

 *******************************************************************************
 *******************************************************************************
 **                                                                           **
 **     #####                         ##              ##                      **
 **    ##   ##            ##          ##              ##                      **
 **   ##     ##                       ##            ######                    **
 **   ##     ##  ##   ##  ##   #####  ##  ##   ####   ##    #####    #####    **
 **   ##     ##  ##   ##  ##  ##      ## ##   ##      ##   ##   ##  ##   ##   **
 **   ##  ## ##  ##   ##  ##  ##      ####     ###    ##   ######   ######    **
 **    ##  ###   ##   ##  ##  ##      ## ##      ##   ##   ##       ##        **
 **     #######   #####   ##   #####  ##  ##  ####    ##    #####   ##        **
 **           ##                                                    ##        **
 **                                                                           **
 **                                                ... make the atoms dance   **
 **                                                                           **
 **            Copyright (C) by CP2K developers group (2000-2021)             **
 **                      J. Chem. Phys. 152, 194103 (2020)                    **
 **                                                                           **
 *******************************************************************************

 DFT| Spin unrestricted (spin-polarized) Kohn-Sham calculation               UKS
 DFT| Multiplicity                                                             3
 DFT| Number of spin states                                                    2
 DFT| Charge                                                                   0
 DFT| Self-interaction correction (SIC)                                       NO
 DFT| Cutoffs: density                                              1.000000E-10
 DFT|          gradient                                             1.000000E-10
 DFT|          tau                                                  1.000000E-10
 DFT|          cutoff_smoothing_range                               0.000000E+00
 DFT| XC density smoothing                                                  NONE
 DFT| XC derivatives                                                          PW
 FUNCTIONAL| ROUTINE=NEW
 FUNCTIONAL| PADE:
 FUNCTIONAL| S. Goedecker, M. Teter and J. Hutter, Phys. Rev. B 54, 1703 (1996) 

 QS| Method:                                                                 GPW
 QS| Density plane wave grid type                        NON-SPHERICAL FULLSPACE
 QS| Number of grid levels:                                                    4
 QS| Density cutoff [a.u.]:                                                170.0
 QS| Multi grid cutoff [a.u.]: 1) grid level                               170.0
 QS|                           2) grid level                                56.7
 QS|                           3) grid level                                18.9
 QS|                           4) grid level                                 6.3
 QS| Grid level progression factor:                                          3.0
 QS| Relative density cutoff [a.u.]:                                        20.0
 QS| Interaction thresholds: eps_pgf_orb:                                1.0E-05
 QS|                         eps_filter_matrix:                          0.0E+00
 QS|                         eps_core_charge:                            1.0E-12
 QS|                         eps_rho_gspace:                             1.0E-10
 QS|                         eps_rho_rspace:                             1.0E-10
 QS|                         eps_gvg_rspace:                             1.0E-05
 QS|                         eps_ppl:                                    1.0E-02
 QS|                         eps_ppnl:                                   1.0E-07


 ATOMIC KIND INFORMATION

  1. Atomic kind: O                                     Number of atoms:       2

     Orbital Basis Set                                             DZVP-GTH-PADE

       Number of orbital shell sets:                                           2
       Number of orbital shells:                                               5
       Number of primitive Cartesian functions:                                5
       Number of Cartesian basis functions:                                   14
       Number of spherical basis functions:                                   13
       Norm type:                                                              2

       Normalised Cartesian orbitals:

                        Set   Shell   Orbital            Exponent    Coefficient

                          1       1    2s                8.304404       0.526521
                                                         2.457945      -0.055011
                                                         0.759736      -0.404341
                                                         0.213639      -0.086026

                          1       2    3s                8.304404       0.000000
                                                         2.457945       0.000000
                                                         0.759736       0.000000
                                                         0.213639       0.223960

                          1       3    3px               8.304404      -2.000758
                                                         2.457945      -1.321077
                                                         0.759736      -0.480331
                                                         0.213639      -0.078647
                          1       3    3py               8.304404      -2.000758
                                                         2.457945      -1.321077
                                                         0.759736      -0.480331
                                                         0.213639      -0.078647
                          1       3    3pz               8.304404      -2.000758
                                                         2.457945      -1.321077
                                                         0.759736      -0.480331
                                                         0.213639      -0.078647

                          1       4    4px               8.304404       0.000000
                                                         2.457945       0.000000
                                                         0.759736       0.000000
                                                         0.213639       0.207033
                          1       4    4py               8.304404       0.000000
                                                         2.457945       0.000000
                                                         0.759736       0.000000
                                                         0.213639       0.207033
                          1       4    4pz               8.304404       0.000000
                                                         2.457945       0.000000
                                                         0.759736       0.000000
                                                         0.213639       0.207033

                          2       1    3dx2              0.800000       1.113825
                          2       1    3dxy              0.800000       1.929201
                          2       1    3dxz              0.800000       1.929201
                          2       1    3dy2              0.800000       1.113825
                          2       1    3dyz              0.800000       1.929201
                          2       1    3dz2              0.800000       1.113825

       Atomic covalent radius [Angstrom]:                                  0.730

       Atomic van der Waals radius [Angstrom]:                             1.520

     GTH Potential information for                                   GTH-PADE-q6

       Description:                       Goedecker-Teter-Hutter pseudopotential
                                           Goedecker et al., PRB 54, 1703 (1996)
                                          Hartwigsen et al., PRB 58, 3641 (1998)
                                                      Krack, TCA 114, 145 (2005)

       Gaussian exponent of the core charge distribution:               8.154466
       Electronic configuration (s p d ...):                               2   4

       Parameters of the local part of the GTH pseudopotential:

                          rloc        C1          C2          C3          C4
                        0.247621  -16.580318    2.395701

       Parameters of the non-local part of the GTH pseudopotential:

                   l      r(l)      h(i,j,l)

                   0    0.221786   18.266917
                   1    0.256829


 MOLECULE KIND INFORMATION


 All atoms are their own molecule, skipping detailed information


 TOTAL NUMBERS AND MAXIMUM NUMBERS

  Total number of            - Atomic kinds:                                   1
                             - Atoms:                                          2
                             - Shell sets:                                     4
                             - Shells:                                        10
                             - Primitive Cartesian functions:                 10
                             - Cartesian basis functions:                     28
                             - Spherical basis functions:                     26

  Maximum angular momentum of- Orbital basis functions:                        2
                             - Local part of the GTH pseudopotential:          2
                             - Non-local part of the GTH pseudopotential:      0


 MODULE QUICKSTEP:  ATOMIC COORDINATES IN angstrom

 Atom  Kind  Element       X           Y           Z          Z(eff)       Mass
    1   1 O    8       4.000000    4.000000    4.000000       6.0000     15.9994
    2   1 O    8       5.000000    4.000000    4.000000       6.0000     15.9994




 SCF PARAMETERS         Density guess:                                    ATOMIC
                        --------------------------------------------------------
                        max_scf:                                              50
                        max_scf_history:                                       0
                        max_diis:                                              4
                        --------------------------------------------------------
                        eps_scf:                                        1.00E-05
                        eps_scf_history:                                0.00E+00
                        eps_diis:                                       1.00E-01
                        eps_eigval:                                     1.00E-05
                        --------------------------------------------------------
                        level_shift [a.u.]:                                 0.00
                        --------------------------------------------------------
                        Outer loop SCF in use 
                        No variables optimised in outer loop
                        eps_scf                                         1.00E-05
                        max_scf                                               50
                        No outer loop optimization
                        step_size                                       5.00E-01

 PW_GRID| Information for grid number                                          1
 PW_GRID| Cutoff [a.u.]                                                    170.0
 PW_GRID| spherical cutoff:                                                   NO
 PW_GRID|   Bounds   1            -45      44                Points:          90
 PW_GRID|   Bounds   2            -45      44                Points:          90
 PW_GRID|   Bounds   3            -45      44                Points:          90
 PW_GRID| Volume element (a.u.^3)  0.4740E-02     Volume (a.u.^3)      3455.1473
 PW_GRID| Grid span                                                    FULLSPACE

 PW_GRID| Information for grid number                                          2
 PW_GRID| Number of the reference grid                                         1
 PW_GRID| Cutoff [a.u.]                                                     56.7
 PW_GRID| spherical cutoff:                                                   NO
 PW_GRID|   Bounds   1            -27      26                Points:          54
 PW_GRID|   Bounds   2            -27      26                Points:          54
 PW_GRID|   Bounds   3            -27      26                Points:          54
 PW_GRID| Volume element (a.u.^3)  0.2194E-01     Volume (a.u.^3)      3455.1473
 PW_GRID| Grid span                                                    FULLSPACE

 PW_GRID| Information for grid number                                          3
 PW_GRID| Number of the reference grid                                         1
 PW_GRID| Cutoff [a.u.]                                                     18.9
 PW_GRID| spherical cutoff:                                                   NO
 PW_GRID|   Bounds   1            -15      14                Points:          30
 PW_GRID|   Bounds   2            -15      14                Points:          30
 PW_GRID|   Bounds   3            -15      14                Points:          30
 PW_GRID| Volume element (a.u.^3)  0.1280         Volume (a.u.^3)      3455.1473
 PW_GRID| Grid span                                                    FULLSPACE

 PW_GRID| Information for grid number                                          4
 PW_GRID| Number of the reference grid                                         1
 PW_GRID| Cutoff [a.u.]                                                      6.3
 PW_GRID| spherical cutoff:                                                   NO
 PW_GRID|   Bounds   1             -9       8                Points:          18
 PW_GRID|   Bounds   2             -9       8                Points:          18
 PW_GRID|   Bounds   3             -9       8                Points:          18
 PW_GRID| Volume element (a.u.^3)  0.5924         Volume (a.u.^3)      3455.1473
 PW_GRID| Grid span                                                    FULLSPACE

 POISSON| Solver                                                        PERIODIC
 POISSON| Periodicity                                                        XYZ

 RS_GRID| Information for grid number                                          1
 RS_GRID|   Bounds   1            -45      44                Points:          90
 RS_GRID|   Bounds   2            -45      44                Points:          90
 RS_GRID|   Bounds   3            -45      44                Points:          90

 RS_GRID| Information for grid number                                          2
 RS_GRID|   Bounds   1            -27      26                Points:          54
 RS_GRID|   Bounds   2            -27      26                Points:          54
 RS_GRID|   Bounds   3            -27      26                Points:          54

 RS_GRID| Information for grid number                                          3
 RS_GRID|   Bounds   1            -15      14                Points:          30
 RS_GRID|   Bounds   2            -15      14                Points:          30
 RS_GRID|   Bounds   3            -15      14                Points:          30

 RS_GRID| Information for grid number                                          4
 RS_GRID|   Bounds   1             -9       8                Points:          18
 RS_GRID|   Bounds   2             -9       8                Points:          18
 RS_GRID|   Bounds   3             -9       8                Points:          18

 *******************************************************************************
 ***                     STARTING GEOMETRY OPTIMIZATION                      ***
 ***                                 L-BFGS                                  ***
 *******************************************************************************

 --------------------------
 OPTIMIZATION STEP:      1
 --------------------------

 Spin 1

 Number of electrons:                                                          7
 Number of occupied orbitals:                                                  7
 Number of molecular orbitals:                                                 7

 Spin 2

 Number of electrons:                                                          5
 Number of occupied orbitals:                                                  5
 Number of molecular orbitals:                                                 5

 Number of orbital functions:                                                 26
 Number of independent orbital functions:                                     26

 Extrapolation method: initial_guess

 Atomic guess: The first density matrix is obtained in terms of atomic orbitals
               and electronic configurations assigned to each atomic kind

 Guess for atomic kind: O

 Electronic structure
    Total number of core electrons                                          2.00
    Total number of valence electrons                                       6.00
    Total number of electrons                                               8.00
    Multiplicity                                                   not specified
    S   [  2.00] 2.00
    P      4.00


 *******************************************************************************
                  Iteration          Convergence                     Energy [au]
 *******************************************************************************
                          1        0.646148                     -15.636779198680
                          2        0.563412                     -15.645844224453
                          3        0.777098E-02                 -15.702646985730
                          4        0.181933E-02                 -15.702656239616
                          5        0.462182E-03                 -15.702656742008
                          6        0.259018E-03                 -15.702656765778
                          7        0.325657E-06                 -15.702656776662

 Energy components [Hartree]           Total Energy ::          -15.702656776662
                                        Band Energy ::           -2.982158420927
                                     Kinetic Energy ::           11.942299328633
                                   Potential Energy ::          -27.644956105295
                                      Virial (-V/T) ::            2.314877172691
                                        Core Energy ::          -26.240315954047
                                          XC Energy ::           -3.168822192398
                                     Coulomb Energy ::           13.706481369783
                       Total Pseudopotential Energy ::          -38.217118818507
                       Local Pseudopotential Energy ::          -39.522372330173
                    Nonlocal Pseudopotential Energy ::            1.305253511666
                                        Confinement ::            0.345035358268

 Orbital energies  State     L     Occupation   Energy[a.u.]          Energy[eV]

                       1     0          2.000      -0.854038          -23.239545

                       1     1          4.000      -0.318521           -8.667392


 Total Electron Density at R=0:                                         0.000667

 Spin 1
 Re-scaling the density matrix to get the right number of electrons for spin 1
                  # Electrons              Trace(P)               Scaling factor
                            7                 6.000                        1.167

 Spin 2
 Re-scaling the density matrix to get the right number of electrons for spin 2
                  # Electrons              Trace(P)               Scaling factor
                            5                 6.000                        0.833


 SCF WAVEFUNCTION OPTIMIZATION

  ----------------------------------- OT ---------------------------------------
  Minimizer      : DIIS                : direct inversion
                                         in the iterative subspace
                                         using   7 DIIS vectors
                                         safer DIIS on
  Preconditioner : FULL_SINGLE_INVERSE : inversion of 
                                         H + eS - 2*(Sc)(c^T*H*c+const)(Sc)^T
  Precond_solver : DEFAULT
  stepsize       :    0.08000000                  energy_gap     :    0.08000000
  eps_taylor     :   0.10000E-15                  max_taylor     :             4
  ----------------------------------- OT ---------------------------------------

  Step     Update method      Time    Convergence         Total energy    Change
  ------------------------------------------------------------------------------
     1 OT DIIS     0.80E-01    1.0     0.15142970       -30.4202687834 -3.04E+01
     2 OT DIIS     0.80E-01    0.3     0.11985657       -30.8643427309 -4.44E-01
     3 OT DIIS     0.80E-01    0.3     0.10835845       -31.1293881515 -2.65E-01
     4 OT DIIS     0.80E-01    0.4     0.10483752       -31.3951671898 -2.66E-01
     5 OT DIIS     0.80E-01    0.4     0.07646913       -31.5613333052 -1.66E-01
     6 OT DIIS     0.80E-01    0.4     0.10567851       -31.4928977686  6.84E-02
     7 OT DIIS     0.80E-01    0.4     0.02715147       -31.6967350978 -2.04E-01
     8 OT DIIS     0.80E-01    0.4     0.04182603       -31.6945274621  2.21E-03
     9 OT DIIS     0.80E-01    0.4     0.01653104       -31.7261061962 -3.16E-02
    10 OT DIIS     0.80E-01    0.3     0.01446577       -31.7310108747 -4.90E-03
    11 OT DIIS     0.80E-01    0.3     0.02119442       -31.7314522885 -4.41E-04
    12 OT DIIS     0.80E-01    0.3     0.01175930       -31.7358822265 -4.43E-03
    13 OT DIIS     0.80E-01    0.4     0.00317839       -31.7376238941 -1.74E-03
    14 OT DIIS     0.80E-01    0.4     0.00135108       -31.7380207437 -3.97E-04
    15 OT DIIS     0.80E-01    0.4     0.00094594       -31.7381242093 -1.03E-04
    16 OT DIIS     0.80E-01    0.3     0.00064559       -31.7381853095 -6.11E-05
    17 OT DIIS     0.80E-01    0.3     0.00043695       -31.7382147485 -2.94E-05
    18 OT DIIS     0.80E-01    0.3     0.00024965       -31.7382325235 -1.78E-05
    19 OT DIIS     0.80E-01    1.0     0.00017902       -31.7382363722 -3.85E-06
    20 OT DIIS     0.80E-01    1.0     0.00012095       -31.7382385672 -2.19E-06
    21 OT DIIS     0.80E-01    0.4     0.00007630       -31.7382396085 -1.04E-06
    22 OT DIIS     0.80E-01    0.4     0.00005191       -31.7382399936 -3.85E-07
    23 OT DIIS     0.80E-01    0.4     0.00003521       -31.7382401696 -1.76E-07
    24 OT DIIS     0.80E-01    0.4     0.00002062       -31.7382402634 -9.38E-08
    25 OT DIIS     0.80E-01    0.4     0.00001422       -31.7382402890 -2.56E-08
    26 OT DIIS     0.80E-01    0.4     0.00001015       -31.7382403001 -1.11E-08
    27 OT DIIS     0.80E-01    0.3     0.00000666       -31.7382403070 -6.95E-09

  *** SCF run converged in    27 steps ***


  Electronic density on regular grids:        -11.9999999956        0.0000000044
  Core density on regular grids:               11.9999999998       -0.0000000002
  Total charge density on r-space grids:        0.0000000041
  Total charge density g-space grids:           0.0000000041

  Overlap energy of the core charge distribution:               0.00000129593136
  Self energy of the core charge distribution:                -82.02388525635212
  Core Hamiltonian energy:                                     24.34908881937477
  Hartree energy:                                              32.86599878416033
  Exchange-correlation energy:                                 -6.92944395015658

  Total energy:                                               -31.73824030704224

  outer SCF iter =    1 RMS gradient =   0.67E-05 energy =        -31.7382403070
  outer SCF loop converged in   1 iterations or   27 steps


  Integrated absolute spin density  :                               2.0192911852
  Ideal and single determinant S**2 :                    2.000000       2.003020

 ENERGY| Total FORCE_EVAL ( QS ) energy [a.u.]:              -31.738240310315412

 Spin 1

 Number of electrons:                                                          7
 Number of occupied orbitals:                                                  7
 Number of molecular orbitals:                                                 7

 Spin 2

 Number of electrons:                                                          5
 Number of occupied orbitals:                                                  5
 Number of molecular orbitals:                                                 5

 Number of orbital functions:                                                 26
 Number of independent orbital functions:                                     26

 Parameters for the always stable predictor-corrector (ASPC) method:

  ASPC order: 0

  B(1) =   1.000000

 Parameters for the always stable predictor-corrector (ASPC) method:

  ASPC order: 0

  B(1) =   1.000000

 Extrapolation method: ASPC


 SCF WAVEFUNCTION OPTIMIZATION

  ----------------------------------- OT ---------------------------------------
  Minimizer      : DIIS                : direct inversion
                                         in the iterative subspace
                                         using   7 DIIS vectors
                                         safer DIIS on
  Preconditioner : FULL_SINGLE_INVERSE : inversion of 
                                         H + eS - 2*(Sc)(c^T*H*c+const)(Sc)^T
  Precond_solver : DEFAULT
  stepsize       :    0.08000000                  energy_gap     :    0.08000000
  eps_taylor     :   0.10000E-15                  max_taylor     :             4
  ----------------------------------- OT ---------------------------------------

  Step     Update method      Time    Convergence         Total energy    Change
  ------------------------------------------------------------------------------
     1 OT DIIS     0.80E-01    0.8     0.09348881       -31.4409025225 -3.14E+01
     2 OT DIIS     0.80E-01    0.2     0.05349506       -31.5740147496 -1.33E-01
     3 OT DIIS     0.80E-01    0.4     0.04031147       -31.6247066613 -5.07E-02
     4 OT DIIS     0.80E-01    0.3     0.01392344       -31.7136232755 -8.89E-02
     5 OT DIIS     0.80E-01    0.3     0.00873632       -31.7215356450 -7.91E-03
     6 OT DIIS     0.80E-01    0.3     0.00862328       -31.7234802420 -1.94E-03
     7 OT DIIS     0.80E-01    0.3     0.00435614       -31.7251079390 -1.63E-03
     8 OT DIIS     0.80E-01    0.4     0.00233272       -31.7253439079 -2.36E-04
     9 OT DIIS     0.80E-01    0.4     0.00043347       -31.7255028150 -1.59E-04
    10 OT DIIS     0.80E-01    0.3     0.00030482       -31.7255072042 -4.39E-06
    11 OT DIIS     0.80E-01    0.3     0.00023360       -31.7255097976 -2.59E-06
    12 OT DIIS     0.80E-01    0.3     0.00009632       -31.7255129776 -3.18E-06
    13 OT DIIS     0.80E-01    0.3     0.00006277       -31.7255133868 -4.09E-07
    14 OT DIIS     0.80E-01    0.3     0.00007370       -31.7255134479 -6.11E-08
    15 OT DIIS     0.80E-01    0.3     0.00002692       -31.7255135359 -8.80E-08
    16 OT DIIS     0.80E-01    0.3     0.00001619       -31.7255135687 -3.27E-08
    17 OT DIIS     0.80E-01    0.3     0.00000707       -31.7255135829 -1.42E-08

  *** SCF run converged in    17 steps ***


  Electronic density on regular grids:        -11.9999999967        0.0000000033
  Core density on regular grids:               11.9999999997       -0.0000000003
  Total charge density on r-space grids:        0.0000000030
  Total charge density g-space grids:           0.0000000030

  Overlap energy of the core charge distribution:               0.00000000000000
  Self energy of the core charge distribution:                -82.02388525635212
  Core Hamiltonian energy:                                     22.41290691581879
  Hartree energy:                                              34.29939493374503
  Exchange-correlation energy:                                 -6.41393017609023

  Total energy:                                               -31.72551358287853

  outer SCF iter =    1 RMS gradient =   0.71E-05 energy =        -31.7255135829
  outer SCF loop converged in   1 iterations or   17 steps


  Integrated absolute spin density  :                               2.0362693955
  Ideal and single determinant S**2 :                    2.000000       2.005863

 ENERGY| Total FORCE_EVAL ( QS ) energy [a.u.]:              -31.725513585188832

 Spin 1

 Number of electrons:                                                          7
 Number of occupied orbitals:                                                  7
 Number of molecular orbitals:                                                 7

 Spin 2

 Number of electrons:                                                          5
 Number of occupied orbitals:                                                  5
 Number of molecular orbitals:                                                 5

 Number of orbital functions:                                                 26
 Number of independent orbital functions:                                     26

 Parameters for the always stable predictor-corrector (ASPC) method:

  ASPC order: 0

  B(1) =   2.000000
  B(2) =  -1.000000

 Parameters for the always stable predictor-corrector (ASPC) method:

  ASPC order: 0

  B(1) =   2.000000
  B(2) =  -1.000000

 Extrapolation method: ASPC


 SCF WAVEFUNCTION OPTIMIZATION

  ----------------------------------- OT ---------------------------------------
  Minimizer      : DIIS                : direct inversion
                                         in the iterative subspace
                                         using   7 DIIS vectors
                                         safer DIIS on
  Preconditioner : FULL_SINGLE_INVERSE : inversion of 
                                         H + eS - 2*(Sc)(c^T*H*c+const)(Sc)^T
  Precond_solver : DEFAULT
  stepsize       :    0.08000000                  energy_gap     :    0.08000000
  eps_taylor     :   0.10000E-15                  max_taylor     :             4
  ----------------------------------- OT ---------------------------------------

  Step     Update method      Time    Convergence         Total energy    Change
  ------------------------------------------------------------------------------
     1 OT DIIS     0.80E-01    0.7     0.09845211       -31.3384420468 -3.13E+01
     2 OT DIIS     0.80E-01    0.4     0.07411807       -31.5502532991 -2.12E-01
     3 OT DIIS     0.80E-01    0.4     0.02450411       -31.8248370114 -2.75E-01
     4 OT DIIS     0.80E-01    0.3     0.01855105       -31.8477019004 -2.29E-02
     5 OT DIIS     0.80E-01    0.3     0.00743204       -31.8590373659 -1.13E-02
     6 OT DIIS     0.80E-01    0.3     0.00492585       -31.8610210087 -1.98E-03
     7 OT DIIS     0.80E-01    0.3     0.00174120       -31.8618959402 -8.75E-04
     8 OT DIIS     0.80E-01    0.3     0.00063434       -31.8620269024 -1.31E-04
     9 OT DIIS     0.80E-01    0.4     0.00024744       -31.8620403044 -1.34E-05
    10 OT DIIS     0.80E-01    0.3     0.00007430       -31.8620426466 -2.34E-06
    11 OT DIIS     0.80E-01    0.3     0.00001415       -31.8620430571 -4.11E-07
    12 OT DIIS     0.80E-01    0.3     0.00000979       -31.8620430633 -6.22E-09

  *** SCF run converged in    12 steps ***


  Electronic density on regular grids:        -11.9999999967        0.0000000033
  Core density on regular grids:               11.9999999997       -0.0000000003
  Total charge density on r-space grids:        0.0000000030
  Total charge density g-space grids:           0.0000000030

  Overlap energy of the core charge distribution:               0.00000000011144
  Self energy of the core charge distribution:                -82.02388525635212
  Core Hamiltonian energy:                                     23.06121423732528
  Hartree energy:                                              33.74103825023180
  Exchange-correlation energy:                                 -6.64041029463460

  Total energy:                                               -31.86204306331819

  outer SCF iter =    1 RMS gradient =   0.98E-05 energy =        -31.8620430633
  outer SCF loop converged in   1 iterations or   12 steps


  Integrated absolute spin density  :                               2.0312639599
  Ideal and single determinant S**2 :                    2.000000       2.004769

 ENERGY| Total FORCE_EVAL ( QS ) energy [a.u.]:              -31.862043068582881

 --------  Informations at step =     1 ------------
  Optimization Method        =                LBFGS
  Total Energy               =       -31.8620430686
  Real energy change         =        -0.1238027583
  Decrease in energy         =                  YES
  Used time                  =               22.198

  Convergence check :
  Max. step size             =         0.2545773603
  Conv. limit for step size  =         0.0030000000
  Convergence in step size   =                   NO
  RMS step size              =         0.1468777636
  Conv. limit for RMS step   =         0.0030000000
  Convergence in RMS step    =                   NO
  Max. gradient              =         0.0596520918
  Conv. limit for gradients  =         0.0030000000
  Conv. for gradients        =                   NO
  RMS gradient               =         0.0341683957
  Conv. limit for RMS grad.  =         0.0030000000
  Conv. for gradients        =                   NO
 ---------------------------------------------------

 --------------------------
 OPTIMIZATION STEP:      2
 --------------------------

 Spin 1

 Number of electrons:                                                          7
 Number of occupied orbitals:                                                  7
 Number of molecular orbitals:                                                 7

 Spin 2

 Number of electrons:                                                          5
 Number of occupied orbitals:                                                  5
 Number of molecular orbitals:                                                 5

 Number of orbital functions:                                                 26
 Number of independent orbital functions:                                     26

 Parameters for the always stable predictor-corrector (ASPC) method:

  ASPC order: 1

  B(1) =   2.500000
  B(2) =  -2.000000
  B(3) =   0.500000

 Parameters for the always stable predictor-corrector (ASPC) method:

  ASPC order: 1

  B(1) =   2.500000
  B(2) =  -2.000000
  B(3) =   0.500000

 Extrapolation method: ASPC


 SCF WAVEFUNCTION OPTIMIZATION

  ----------------------------------- OT ---------------------------------------
  Minimizer      : DIIS                : direct inversion
                                         in the iterative subspace
                                         using   7 DIIS vectors
                                         safer DIIS on
  Preconditioner : FULL_SINGLE_INVERSE : inversion of 
                                         H + eS - 2*(Sc)(c^T*H*c+const)(Sc)^T
  Precond_solver : DEFAULT
  stepsize       :    0.08000000                  energy_gap     :    0.08000000
  eps_taylor     :   0.10000E-15                  max_taylor     :             4
  ----------------------------------- OT ---------------------------------------

  Step     Update method      Time    Convergence         Total energy    Change
  ------------------------------------------------------------------------------
     1 OT DIIS     0.80E-01    1.0     0.07583074       -31.5147105694 -3.15E+01
     2 OT DIIS     0.80E-01    0.4     0.05977270       -31.6430040816 -1.28E-01
     3 OT DIIS     0.80E-01    0.4     0.01563861       -31.8489043096 -2.06E-01
     4 OT DIIS     0.80E-01    0.4     0.01319209       -31.8542648643 -5.36E-03
     5 OT DIIS     0.80E-01    0.3     0.00255913       -31.8632400721 -8.98E-03
     6 OT DIIS     0.80E-01    0.3     0.00120857       -31.8636741650 -4.34E-04
     7 OT DIIS     0.80E-01    0.3     0.00052797       -31.8637501061 -7.59E-05
     8 OT DIIS     0.80E-01    0.3     0.00012128       -31.8637679590 -1.79E-05
     9 OT DIIS     0.80E-01    0.4     0.00004751       -31.8637687171 -7.58E-07
    10 OT DIIS     0.80E-01    0.4     0.00002958       -31.8637688356 -1.19E-07
    11 OT DIIS     0.80E-01    0.3     0.00001180       -31.8637688896 -5.40E-08
    12 OT DIIS     0.80E-01    0.3     0.00000543       -31.8637688973 -7.62E-09

  *** SCF run converged in    12 steps ***


  Electronic density on regular grids:        -11.9999999970        0.0000000030
  Core density on regular grids:               11.9999999997       -0.0000000003
  Total charge density on r-space grids:        0.0000000027
  Total charge density g-space grids:           0.0000000027

  Overlap energy of the core charge distribution:               0.00000000022733
  Self energy of the core charge distribution:                -82.02388525635212
  Core Hamiltonian energy:                                     23.11814374759238
  Hartree energy:                                              33.69752148208897
  Exchange-correlation energy:                                 -6.65554887082365

  Total energy:                                               -31.86376889726708

  outer SCF iter =    1 RMS gradient =   0.54E-05 energy =        -31.8637688973
  outer SCF loop converged in   1 iterations or   12 steps


  Integrated absolute spin density  :                               2.0305830840
  Ideal and single determinant S**2 :                    2.000000       2.004676

 ENERGY| Total FORCE_EVAL ( QS ) energy [a.u.]:              -31.863768898347555

 --------  Informations at step =     2 ------------
  Optimization Method        =                LBFGS
  Total Energy               =       -31.8637688983
  Real energy change         =        -0.0017258298
  Decrease in energy         =                  YES
  Used time                  =                4.914

  Convergence check :
  Max. step size             =         0.0177452936
  Conv. limit for step size  =         0.0030000000
  Convergence in step size   =                   NO
  RMS step size              =         0.0101694586
  Conv. limit for RMS step   =         0.0030000000
  Convergence in RMS step    =                   NO
  Max. gradient              =         0.0389493121
  Conv. limit for gradients  =         0.0030000000
  Conv. for gradients        =                   NO
  RMS gradient               =         0.0221242025
  Conv. limit for RMS grad.  =         0.0030000000
  Conv. for gradients        =                   NO
 ---------------------------------------------------

 --------------------------
 OPTIMIZATION STEP:      3
 --------------------------

 Spin 1

 Number of electrons:                                                          7
 Number of occupied orbitals:                                                  7
 Number of molecular orbitals:                                                 7

 Spin 2

 Number of electrons:                                                          5
 Number of occupied orbitals:                                                  5
 Number of molecular orbitals:                                                 5

 Number of orbital functions:                                                 26
 Number of independent orbital functions:                                     26

 Parameters for the always stable predictor-corrector (ASPC) method:

  ASPC order: 2

  B(1) =   2.800000
  B(2) =  -2.800000
  B(3) =   1.200000
  B(4) =  -0.200000

 Parameters for the always stable predictor-corrector (ASPC) method:

  ASPC order: 2

  B(1) =   2.800000
  B(2) =  -2.800000
  B(3) =   1.200000
  B(4) =  -0.200000

 Extrapolation method: ASPC


 SCF WAVEFUNCTION OPTIMIZATION

  ----------------------------------- OT ---------------------------------------
  Minimizer      : DIIS                : direct inversion
                                         in the iterative subspace
                                         using   7 DIIS vectors
                                         safer DIIS on
  Preconditioner : FULL_SINGLE_INVERSE : inversion of 
                                         H + eS - 2*(Sc)(c^T*H*c+const)(Sc)^T
  Precond_solver : DEFAULT
  stepsize       :    0.08000000                  energy_gap     :    0.08000000
  eps_taylor     :   0.10000E-15                  max_taylor     :             4
  ----------------------------------- OT ---------------------------------------

  Step     Update method      Time    Convergence         Total energy    Change
  ------------------------------------------------------------------------------
     1 OT DIIS     0.80E-01    0.9     0.04759027       -31.7282702263 -3.17E+01
     2 OT DIIS     0.80E-01    0.3     0.03712742       -31.7785249891 -5.03E-02
     3 OT DIIS     0.80E-01    0.3     0.01005507       -31.8577600851 -7.92E-02
     4 OT DIIS     0.80E-01    0.4     0.00315181       -31.8639604172 -6.20E-03
     5 OT DIIS     0.80E-01    0.3     0.00154748       -31.8646141796 -6.54E-04
     6 OT DIIS     0.80E-01    0.4     0.00058286       -31.8647777951 -1.64E-04
     7 OT DIIS     0.80E-01    0.4     0.00036567       -31.8647925058 -1.47E-05
     8 OT DIIS     0.80E-01    0.3     0.00013483       -31.8647996777 -7.17E-06
     9 OT DIIS     0.80E-01    0.3     0.00004549       -31.8648005653 -8.88E-07
    10 OT DIIS     0.80E-01    0.3     0.00002244       -31.8648006618 -9.65E-08
    11 OT DIIS     0.80E-01    0.3     0.00001523       -31.8648006845 -2.27E-08
    12 OT DIIS     0.80E-01    0.3     0.00000372       -31.8648007020 -1.75E-08

  *** SCF run converged in    12 steps ***


  Electronic density on regular grids:        -11.9999999967        0.0000000033
  Core density on regular grids:               11.9999999997       -0.0000000003
  Total charge density on r-space grids:        0.0000000030
  Total charge density g-space grids:           0.0000000030

  Overlap energy of the core charge distribution:               0.00000000082127
  Self energy of the core charge distribution:                -82.02388525635212
  Core Hamiltonian energy:                                     23.23307371946191
  Hartree energy:                                              33.61116110560446
  Exchange-correlation energy:                                 -6.68515027155631

  Total energy:                                               -31.86480070202078

  outer SCF iter =    1 RMS gradient =   0.37E-05 energy =        -31.8648007020
  outer SCF loop converged in   1 iterations or   12 steps


  Integrated absolute spin density  :                               2.0293179255
  Ideal and single determinant S**2 :                    2.000000       2.004497

 ENERGY| Total FORCE_EVAL ( QS ) energy [a.u.]:              -31.864800702473680

 --------  Informations at step =     3 ------------
  Optimization Method        =                LBFGS
  Total Energy               =       -31.8648007025
  Real energy change         =        -0.0010318041
  Decrease in energy         =                  YES
  Used time                  =                4.823

  Convergence check :
  Max. step size             =         0.0333852011
  Conv. limit for step size  =         0.0030000000
  Convergence in step size   =                   NO
  RMS step size              =         0.0186907200
  Conv. limit for RMS step   =         0.0030000000
  Convergence in RMS step    =                   NO
  Max. gradient              =         0.0089570442
  Conv. limit for gradients  =         0.0030000000
  Conv. for gradients        =                   NO
  RMS gradient               =         0.0049096181
  Conv. limit for RMS grad.  =         0.0030000000
  Conv. for gradients        =                   NO
 ---------------------------------------------------

 --------------------------
 OPTIMIZATION STEP:      4
 --------------------------

 Spin 1

 Number of electrons:                                                          7
 Number of occupied orbitals:                                                  7
 Number of molecular orbitals:                                                 7

 Spin 2

 Number of electrons:                                                          5
 Number of occupied orbitals:                                                  5
 Number of molecular orbitals:                                                 5

 Number of orbital functions:                                                 26
 Number of independent orbital functions:                                     26

 Parameters for the always stable predictor-corrector (ASPC) method:

  ASPC order: 3

  B(1) =   3.000000
  B(2) =  -3.428571
  B(3) =   1.928571
  B(4) =  -0.571429
  B(5) =   0.071429

 Parameters for the always stable predictor-corrector (ASPC) method:

  ASPC order: 3

  B(1) =   3.000000
  B(2) =  -3.428571
  B(3) =   1.928571
  B(4) =  -0.571429
  B(5) =   0.071429

 Extrapolation method: ASPC


 SCF WAVEFUNCTION OPTIMIZATION

  ----------------------------------- OT ---------------------------------------
  Minimizer      : DIIS                : direct inversion
                                         in the iterative subspace
                                         using   7 DIIS vectors
                                         safer DIIS on
  Preconditioner : FULL_SINGLE_INVERSE : inversion of 
                                         H + eS - 2*(Sc)(c^T*H*c+const)(Sc)^T
  Precond_solver : DEFAULT
  stepsize       :    0.08000000                  energy_gap     :    0.08000000
  eps_taylor     :   0.10000E-15                  max_taylor     :             4
  ----------------------------------- OT ---------------------------------------

  Step     Update method      Time    Convergence         Total energy    Change
  ------------------------------------------------------------------------------
     1 OT DIIS     0.80E-01    0.6     0.02548762       -31.8239016704 -3.18E+01
     2 OT DIIS     0.80E-01    0.2     0.02016249       -31.8384083299 -1.45E-02
     3 OT DIIS     0.80E-01    0.2     0.00518391       -31.8629829851 -2.46E-02
     4 OT DIIS     0.80E-01    0.2     0.00138343       -31.8647254066 -1.74E-03
     5 OT DIIS     0.80E-01    0.3     0.00100389       -31.8647708469 -4.54E-05
     6 OT DIIS     0.80E-01    0.3     0.00033238       -31.8648365605 -6.57E-05
     7 OT DIIS     0.80E-01    0.3     0.00009431       -31.8648443720 -7.81E-06
     8 OT DIIS     0.80E-01    0.3     0.00007105       -31.8648445471 -1.75E-07
     9 OT DIIS     0.80E-01    0.3     0.00001386       -31.8648448607 -3.14E-07
    10 OT DIIS     0.80E-01    0.3     0.00000757       -31.8648448709 -1.02E-08

  *** SCF run converged in    10 steps ***


  Electronic density on regular grids:        -11.9999999969        0.0000000031
  Core density on regular grids:               11.9999999997       -0.0000000003
  Total charge density on r-space grids:        0.0000000029
  Total charge density g-space grids:           0.0000000029

  Overlap energy of the core charge distribution:               0.00000000065240
  Self energy of the core charge distribution:                -82.02388525635212
  Core Hamiltonian energy:                                     23.21127370495910
  Hartree energy:                                              33.62738897474744
  Exchange-correlation energy:                                 -6.67962229494109

  Total energy:                                               -31.86484487093427

  outer SCF iter =    1 RMS gradient =   0.76E-05 energy =        -31.8648448709
  outer SCF loop converged in   1 iterations or   10 steps


  Integrated absolute spin density  :                               2.0295404024
  Ideal and single determinant S**2 :                    2.000000       2.004528

 ENERGY| Total FORCE_EVAL ( QS ) energy [a.u.]:              -31.864844874452338

 --------  Informations at step =     4 ------------
  Optimization Method        =                LBFGS
  Total Energy               =       -31.8648448745
  Real energy change         =        -0.0000441720
  Decrease in energy         =                  YES
  Used time                  =                3.508

  Convergence check :
  Max. step size             =         0.0060173258
  Conv. limit for step size  =         0.0030000000
  Convergence in step size   =                   NO
  RMS step size              =         0.0033845494
  Conv. limit for RMS step   =         0.0030000000
  Convergence in RMS step    =                   NO
  Max. gradient              =         0.0014614534
  Conv. limit for gradients  =         0.0030000000
  Conv. in gradients         =                  YES
  RMS gradient               =         0.0006135219
  Conv. limit for RMS grad.  =         0.0030000000
  Conv. in RMS gradients     =                  YES
 ---------------------------------------------------

 --------------------------
 OPTIMIZATION STEP:      5
 --------------------------

 Spin 1

 Number of electrons:                                                          7
 Number of occupied orbitals:                                                  7
 Number of molecular orbitals:                                                 7

 Spin 2

 Number of electrons:                                                          5
 Number of occupied orbitals:                                                  5
 Number of molecular orbitals:                                                 5

 Number of orbital functions:                                                 26
 Number of independent orbital functions:                                     26

 Parameters for the always stable predictor-corrector (ASPC) method:

  ASPC order: 3

  B(1) =   3.000000
  B(2) =  -3.428571
  B(3) =   1.928571
  B(4) =  -0.571429
  B(5) =   0.071429

 Parameters for the always stable predictor-corrector (ASPC) method:

  ASPC order: 3

  B(1) =   3.000000
  B(2) =  -3.428571
  B(3) =   1.928571
  B(4) =  -0.571429
  B(5) =   0.071429

 Extrapolation method: ASPC


 SCF WAVEFUNCTION OPTIMIZATION

  ----------------------------------- OT ---------------------------------------
  Minimizer      : DIIS                : direct inversion
                                         in the iterative subspace
                                         using   7 DIIS vectors
                                         safer DIIS on
  Preconditioner : FULL_SINGLE_INVERSE : inversion of 
                                         H + eS - 2*(Sc)(c^T*H*c+const)(Sc)^T
  Precond_solver : DEFAULT
  stepsize       :    0.08000000                  energy_gap     :    0.08000000
  eps_taylor     :   0.10000E-15                  max_taylor     :             4
  ----------------------------------- OT ---------------------------------------

  Step     Update method      Time    Convergence         Total energy    Change
  ------------------------------------------------------------------------------
     1 OT DIIS     0.80E-01    0.5     0.00807657       -31.8607610949 -3.19E+01
     2 OT DIIS     0.80E-01    0.2     0.00635806       -31.8622142199 -1.45E-03
     3 OT DIIS     0.80E-01    0.2     0.00171171       -31.8646328254 -2.42E-03
     4 OT DIIS     0.80E-01    0.3     0.00037157       -31.8648345583 -2.02E-04
     5 OT DIIS     0.80E-01    0.2     0.00020189       -31.8648423086 -7.75E-06
     6 OT DIIS     0.80E-01    0.3     0.00010146       -31.8648450670 -2.76E-06
     7 OT DIIS     0.80E-01    0.2     0.00002858       -31.8648457115 -6.44E-07
     8 OT DIIS     0.80E-01    0.2     0.00000815       -31.8648457587 -4.72E-08

  *** SCF run converged in     8 steps ***


  Electronic density on regular grids:        -11.9999999969        0.0000000031
  Core density on regular grids:               11.9999999997       -0.0000000003
  Total charge density on r-space grids:        0.0000000029
  Total charge density g-space grids:           0.0000000029

  Overlap energy of the core charge distribution:               0.00000000066674
  Self energy of the core charge distribution:                -82.02388525635212
  Core Hamiltonian energy:                                     23.21324184618781
  Hartree energy:                                              33.62593048670526
  Exchange-correlation energy:                                 -6.68013283591315

  Total energy:                                               -31.86484575870545

  outer SCF iter =    1 RMS gradient =   0.81E-05 energy =        -31.8648457587
  outer SCF loop converged in   1 iterations or    8 steps


  Integrated absolute spin density  :                               2.0295442124
  Ideal and single determinant S**2 :                    2.000000       2.004529

 ENERGY| Total FORCE_EVAL ( QS ) energy [a.u.]:              -31.864845762424714

 --------  Informations at step =     5 ------------
  Optimization Method        =                LBFGS
  Total Energy               =       -31.8648457624
  Real energy change         =        -0.0000008880
  Decrease in energy         =                  YES
  Used time                  =                2.787

  Convergence check :
  Max. step size             =         0.0008800687
  Conv. limit for step size  =         0.0030000000
  Convergence in step size   =                  YES
  RMS step size              =         0.0003708298
  Conv. limit for RMS step   =         0.0030000000
  Convergence in RMS step    =                  YES
  Max. gradient              =         0.0005935175
  Conv. limit for gradients  =         0.0030000000
  Conv. in gradients         =                  YES
  RMS gradient               =         0.0003211442
  Conv. limit for RMS grad.  =         0.0030000000
  Conv. in RMS gradients     =                  YES
 ---------------------------------------------------

 *******************************************************************************
 ***                    GEOMETRY OPTIMIZATION COMPLETED                      ***
 *******************************************************************************

                    Reevaluating energy at the minimum

 Spin 1

 Number of electrons:                                                          7
 Number of occupied orbitals:                                                  7
 Number of molecular orbitals:                                                 7

 Spin 2

 Number of electrons:                                                          5
 Number of occupied orbitals:                                                  5
 Number of molecular orbitals:                                                 5

 Number of orbital functions:                                                 26
 Number of independent orbital functions:                                     26

 Parameters for the always stable predictor-corrector (ASPC) method:

  ASPC order: 3

  B(1) =   3.000000
  B(2) =  -3.428571
  B(3) =   1.928571
  B(4) =  -0.571429
  B(5) =   0.071429

 Parameters for the always stable predictor-corrector (ASPC) method:

  ASPC order: 3

  B(1) =   3.000000
  B(2) =  -3.428571
  B(3) =   1.928571
  B(4) =  -0.571429
  B(5) =   0.071429

 Extrapolation method: ASPC


 SCF WAVEFUNCTION OPTIMIZATION

  ----------------------------------- OT ---------------------------------------
  Minimizer      : DIIS                : direct inversion
                                         in the iterative subspace
                                         using   7 DIIS vectors
                                         safer DIIS on
  Preconditioner : FULL_SINGLE_INVERSE : inversion of 
                                         H + eS - 2*(Sc)(c^T*H*c+const)(Sc)^T
  Precond_solver : DEFAULT
  stepsize       :    0.08000000                  energy_gap     :    0.08000000
  eps_taylor     :   0.10000E-15                  max_taylor     :             4
  ----------------------------------- OT ---------------------------------------

  Step     Update method      Time    Convergence         Total energy    Change
  ------------------------------------------------------------------------------
     1 OT DIIS     0.80E-01    0.9     0.00282201       -31.8643427756 -3.19E+01
     2 OT DIIS     0.80E-01    0.2     0.00222589       -31.8645203348 -1.78E-04
     3 OT DIIS     0.80E-01    0.2     0.00060715       -31.8648186762 -2.98E-04
     4 OT DIIS     0.80E-01    0.2     0.00013171       -31.8648443772 -2.57E-05
     5 OT DIIS     0.80E-01    0.2     0.00005273       -31.8648455732 -1.20E-06
     6 OT DIIS     0.80E-01    0.2     0.00003739       -31.8648456435 -7.03E-08
     7 OT DIIS     0.80E-01    0.2     0.00001249       -31.8648457531 -1.10E-07
     8 OT DIIS     0.80E-01    0.2     0.00000659       -31.8648457610 -7.95E-09

  *** SCF run converged in     8 steps ***


  Electronic density on regular grids:        -11.9999999969        0.0000000031
  Core density on regular grids:               11.9999999997       -0.0000000003
  Total charge density on r-space grids:        0.0000000029
  Total charge density g-space grids:           0.0000000029

  Overlap energy of the core charge distribution:               0.00000000066674
  Self energy of the core charge distribution:                -82.02388525635212
  Core Hamiltonian energy:                                     23.21334384528470
  Hartree energy:                                              33.62584147032494
  Exchange-correlation energy:                                 -6.68014582092535

  Total energy:                                               -31.86484576100109

  outer SCF iter =    1 RMS gradient =   0.66E-05 energy =        -31.8648457610
  outer SCF loop converged in   1 iterations or    8 steps


  Integrated absolute spin density  :                               2.0295246541
  Ideal and single determinant S**2 :                    2.000000       2.004525

 ENERGY| Total FORCE_EVAL ( QS ) energy [a.u.]:              -31.864845761001085

 -------------------------------------------------------------------------------
 -                                                                             -
 -                                DBCSR STATISTICS                             -
 -                                                                             -
 -------------------------------------------------------------------------------
 COUNTER                                    TOTAL       BLAS       SMM       ACC
 flops     5 x     5 x     5               240500       0.0%    100.0%      0.0%
 flops     5 x     5 x    26               551200       0.0%    100.0%      0.0%
 flops     7 x     7 x     7               649642       0.0%    100.0%      0.0%
 flops    13 x    13 x     5               654030       0.0%    100.0%      0.0%
 flops    13 x     5 x     5               689000       0.0%    100.0%      0.0%
 flops    13 x     5 x    26               770640       0.0%    100.0%      0.0%
 flops    13 x    13 x     7               915642       0.0%    100.0%      0.0%
 flops    13 x     7 x    26              1078896       0.0%    100.0%      0.0%
 flops     7 x     7 x    26              1080352       0.0%    100.0%      0.0%
 flops    13 x     7 x     7              1350440       0.0%    100.0%      0.0%
 flops    13 x     5 x    13              1886040       0.0%    100.0%      0.0%
 flops    13 x     7 x    13              2564744       0.0%    100.0%      0.0%
 flops inhomo. stacks                           0       0.0%      0.0%      0.0%
 flops total                        12.431126E+06       0.0%    100.0%      0.0%
 flops max/rank                     12.431126E+06       0.0%    100.0%      0.0%
 matmuls inhomo. stacks                         0       0.0%      0.0%      0.0%
 matmuls total                               8307       0.0%    100.0%      0.0%
 number of processed stacks                  6949       0.0%    100.0%      0.0%
 average stack size                                     0.0       1.2       0.0
 marketing flops                    12.985134E+06
 -------------------------------------------------------------------------------
 # multiplications                           4869
 max memory usage/rank             655.376384E+06
 # max total images/rank                        1
 # max 3D layers                                1
 # MPI messages exchanged                       0
 -------------------------------------------------------------------------------

 -------------------------------------------------------------------------------
 -                                                                             -
 -                                GRID STATISTICS                              -
 -                                                                             -
 -------------------------------------------------------------------------------
 LP    KERNEL             BACKEND                              COUNT     PERCENT
 2     collocate ortho    REF                                  11110      32.15%
 2     integrate ortho    REF                                  10330      29.90%
 3     collocate ortho    REF                                   5544      16.04%
 3     integrate ortho    REF                                   5156      14.92%
 4     collocate ortho    REF                                    684       1.98%
 5     integrate ortho    REF                                    682       1.97%
 4     integrate ortho    REF                                    636       1.84%
 6     integrate ortho    REF                                    340       0.98%
 7     integrate ortho    REF                                     42       0.12%
 0     collocate general  REF                                     16       0.05%
 3     integrate general  REF                                     14       0.04%
 -------------------------------------------------------------------------------

 MEMORY| Estimated peak process memory [MiB]                                 626

 -------------------------------------------------------------------------------
 ----                             MULTIGRID INFO                            ----
 -------------------------------------------------------------------------------
 count for grid        1:           1055          cutoff [a.u.]          170.00
 count for grid        2:            646          cutoff [a.u.]           56.67
 count for grid        3:            116          cutoff [a.u.]           18.89
 count for grid        4:             16          cutoff [a.u.]            6.30
 total gridlevel count  :           1833

 -------------------------------------------------------------------------------
 -                                                                             -
 -                           R E F E R E N C E S                               -
 -                                                                             -
 -------------------------------------------------------------------------------
 
 CP2K version 9.1, the CP2K developers group (2021).
 CP2K is freely available from https://www.cp2k.org/ .

 Kuehne,Thomas D.; Iannuzzi,Marcella; Del Ben,Mauro;
 Rybkin,Vladimir V.; Seewald,Patrick; Stein,Frederick; Laino,Teodoro;
 Khaliullin,Rustam Z.; Schuett,Ole; Schiffmann,Florian; Golze,Dorothea;
 Wilhelm,Jan; Chulkov,Sergey; Bani-Hashemian,Mohammad Hossein;
 Weber,Valery; Borstnik,Urban; Taillefumier,Mathieu;
 Jakobovits,Alice Shoshana; Lazzaro,Alfio; Pabst,Hans; Mueller,Tiziano;
 Schade,Robert; Guidon,Manuel; Andermatt,Samuel; Holmberg,Nico;
 Schenter,Gregory K.; Hehn,Anna; Bussy,Augustin; Belleflamme,Fabian;
 Tabacchi,Gloria; Gloess,Andreas; Lass,Michael; Bethune,Iain;
 Mundy,Christopher J.; Plessl,Christian; Watkins,Matt;
 VandeVondele,Joost; Krack,Matthias; Hutter,Juerg. 
 The Journal of Chemical Physics, 152 (19), (2020). 
 CP2K: An electronic structure and molecular dynamics software package -
 Quickstep: Efficient and accurate electronic structure calculations.
 https://doi.org/10.1063/5.0007045

 Schuett, Ole; Messmer, Peter; Hutter, Juerg; VandeVondele, Joost. 
 Electronic Structure Calculations on Graphics Processing Units, John
 Wiley & Sons, Ltd, 173-190 (2016). 
 GPU-Accelerated Sparse Matrix-Matrix Multiplication for
 Linear Scaling Density Functional Theory.
 https://doi.org/10.1002/9781118670712.ch8

 Heinecke, A; Henry, G; Hutchinson, M; Pabst, H. 
 Proceedings of Intl. Supercomputing Conference, 981-991 (2016). 
 LIBXSMM: Accelerating Small Matrix Multiplications
 by Runtime Code Generation.
 https://doi.org/10.1109/SC.2016.83

 Borstnik, U; VandeVondele, J; Weber, V; Hutter, J. 
 PARALLEL COMPUTING, 40 (5-6), 47-58 (2014). 
 Sparse matrix multiplication: The distributed block-compressed sparse
 row library.
 https://doi.org/10.1016/j.parco.2014.03.012

 Hutter, J; Iannuzzi, M; Schiffmann, F; VandeVondele, J. 
 WIREs Comput Mol Sci., 4 (1), 15-25 (2014). 
 CP2K: atomistic simulations of condensed matter systems.
 https://doi.org/10.1002/wcms.1159

 Kuhne, TD; Krack, M; Mohamed, FR; Parrinello, M. 
 PHYSICAL REVIEW LETTERS, 98 (6), 066401 (2007). 
 Efficient and accurate Car-Parrinello-like approach to
 Born-Oppenheimer molecular dynamics.
 https://doi.org/10.1103/PhysRevLett.98.066401

 Krack, M. 
 THEORETICAL CHEMISTRY ACCOUNTS, 114 (1-3), 145-152 (2005). 
 Pseudopotentials for H to Kr optimized for gradient-corrected
 exchange-correlation functionals.
 https://doi.org/10.1007/s00214-005-0655-y

 VandeVondele, J; Krack, M; Mohamed, F; Parrinello, M; Chassaing, T;
 Hutter, J. COMPUTER PHYSICS COMMUNICATIONS, 167 (2), 103-128 (2005). 
 QUICKSTEP: Fast and accurate density functional calculations using a
 mixed Gaussian and plane waves approach.
 https://doi.org/10.1016/j.cpc.2004.12.014

 Frigo, M; Johnson, SG. 
 PROCEEDINGS OF THE IEEE, 93 (2), 216-231 (2005). 
 The design and implementation of FFTW3.
 https://doi.org/10.1109/JPROC.2004.840301

 Kolafa, J. 
 JOURNAL OF COMPUTATIONAL CHEMISTRY, 25 (3), 335-342 (2004). 
 Time-reversible always stable predictor-corrector method for
 molecular dynamics of polarizable molecules.
 https://doi.org/10.1002/jcc.10385

 VandeVondele, J; Hutter, J. 
 JOURNAL OF CHEMICAL PHYSICS, 118 (10), 4365-4369 (2003). 
 An efficient orbital transformation method for electronic structure
 calculations.
 https://doi.org/10.1063/1.1543154

 Hartwigsen, C; Goedecker, S; Hutter, J. 
 PHYSICAL REVIEW B, 58 (7), 3641-3662 (1998). 
 Relativistic separable dual-space Gaussian pseudopotentials from H to Rn.
 https://doi.org/10.1103/PhysRevB.58.3641

 Lippert, G; Hutter, J; Parrinello, M. 
 MOLECULAR PHYSICS, 92 (3), 477-487 (1997). 
 A hybrid Gaussian and plane wave density functional scheme.
 https://doi.org/10.1080/002689797170220

 Goedecker, S; Teter, M; Hutter, J. 
 PHYSICAL REVIEW B, 54 (3), 1703-1710 (1996). 
 Separable dual-space Gaussian pseudopotentials.
 https://doi.org/10.1103/PhysRevB.54.1703

 BYRD, RH; LU, PH; NOCEDAL, J; ZHU, CY. 
 SIAM JOURNAL ON SCIENTIFIC COMPUTING, 16 (5), 1190-1208 (1995). 
 A LIMITED MEMORY ALGORITHM FOR BOUND CONSTRAINED OPTIMIZATION.
 https://doi.org/10.1137/0916069


 -------------------------------------------------------------------------------
 -                                                                             -
 -                                T I M I N G                                  -
 -                                                                             -
 -------------------------------------------------------------------------------
 SUBROUTINE                       CALLS  ASD         SELF TIME        TOTAL TIME
                                MAXIMUM       AVERAGE  MAXIMUM  AVERAGE  MAXIMUM
 CP2K                                 1  1.0    0.028    0.028   41.014   41.014
 cp_geo_opt                           1  2.0    0.000    0.000   40.826   40.826
 geoopt_lbfgs                         1  3.0    0.000    0.000   40.826   40.826
 cp_eval_at                           8  4.9    0.001    0.001   40.814   40.814
 qs_energies                          8  6.8    0.000    0.000   39.799   39.799
 cp_opt_gopt_step                     5  4.0    0.001    0.001   38.240   38.240
 qs_forces                            7  6.0    0.000    0.000   38.229   38.229
 scf_env_do_scf                       8  7.8    0.001    0.001   37.755   37.755
 scf_env_do_scf_inner_loop          106  8.8    0.009    0.009   31.763   31.763
 rebuild_ks_matrix                  113 10.7    0.000    0.000   12.452   12.452
 qs_ks_build_kohn_sham_matrix       113 11.7    0.014    0.014   12.452   12.452
 qs_scf_new_mos                     106  9.8    0.001    0.001   12.158   12.158
 qs_scf_loop_do_ot                  106 10.8    0.001    0.001   12.157   12.157
 ot_scf_mini                        106 11.8    0.003    0.003   12.002   12.002
 qs_ks_update_qs_env                114  9.8    0.001    0.001   11.454   11.454
 qs_rho_update_rho                  114  9.9    0.001    0.001   11.239   11.239
 calculate_rho_elec                 228 10.9    1.253    1.253   11.238   11.238
 pw_transfer                       2391 14.0    0.127    0.127   11.218   11.218
 fft_wrap_pw1pw2                   2165 15.0    0.016    0.016   10.812   10.812
 copy_fm_to_dbcsr                   356 13.9    0.002    0.002    9.604    9.604
 copy_fm_to_dbcsr_bc                356 14.9    0.878    0.878    9.453    9.453
 fft_wrap_pw1pw2_170                803 15.6    0.771    0.771    9.369    9.369
 dbcsr_create_new                 56094 17.3    6.463    6.463    9.328    9.328
 qs_ot_get_p                        228 12.7    0.001    0.001    8.850    8.850
 qs_ot_p2m_diag                     150 14.0    0.004    0.004    8.243    8.243
 cp_dbcsr_syevd                     150 15.0    0.008    0.008    8.015    8.015
 density_rs2pw                      228 11.9    0.011    0.011    7.046    7.046
 fft3d_s                           2166 17.0    6.950    6.950    6.961    6.961
 init_scf_loop                        8  8.8    0.000    0.000    5.987    5.987
 sum_up_and_integrate               113 12.7    0.265    0.265    5.117    5.117
 integrate_v_rspace                 226 13.7    0.008    0.008    4.851    4.851
 potential_pw2rs                    226 14.7    0.070    0.070    4.426    4.426
 prepare_preconditioner               8  9.8    0.000    0.000    4.253    4.253
 make_preconditioner                 16 10.8    0.000    0.000    4.253    4.253
 dbcsr_multiply_generic            4869 14.9    0.175    0.175    3.823    3.823
 qs_vxc_create                      113 12.7    0.002    0.002    3.676    3.676
 xc_vxc_pw_create                   113 13.7    0.536    0.536    3.675    3.675
 xc_rho_set_and_dset_create         113 14.7    0.006    0.006    3.138    3.138
 xc_functional_eval                 113 15.7    2.969    2.969    2.969    2.969
 grid_collocate_task_list           228 11.9    2.939    2.939    2.939    2.939
 dbcsr_make_index_exist           56094 18.3    2.833    2.833    2.833    2.833
 ot_mini                            106 12.8    0.001    0.001    2.732    2.732
 qs_ot_get_derivative               212 13.8    0.002    0.002    2.313    2.313
 make_full_single_inverse            16 11.8    0.001    0.001    2.128    2.128
 arnoldi_generalized_ev              16 12.8    0.000    0.000    2.035    2.035
 pw_poisson_solve                   113 12.7    0.412    0.412    1.823    1.823
 init_scf_run                         8  7.8    0.000    0.000    1.812    1.812
 scf_env_initial_rho_setup            8  8.8    0.000    0.000    1.811    1.811
 gev_update_data                     18 13.8    0.000    0.000    1.751    1.751
 dbcsr_add_d                       3743 14.9    0.004    0.004    1.691    1.691
 dbcsr_add_anytype                 3743 15.9    0.525    0.525    1.687    1.687
 transfer_fm_to_dbcsr                16 11.8    0.000    0.000    1.687    1.687
 pw_gather_s                       1146 16.4    1.650    1.650    1.650    1.650
 make_m2s                          9738 15.9    0.093    0.093    1.510    1.510
 wfi_extrapolate                      8  9.8    0.001    0.001    1.409    1.409
 pw_scatter_s                      1019 17.7    1.244    1.244    1.244    1.244
 qs_ot_get_derivative_diag          140 15.0    0.003    0.003    1.216    1.216
 dbcsr_iterator_start             61653 18.1    1.125    1.125    1.164    1.164
 fft_wrap_pw1pw2_60                 454 16.3    0.149    0.149    1.114    1.114
 pw_copy                           1498 15.2    1.065    1.065    1.065    1.065
 pw_integral_ab                     155 12.9    1.050    1.050    1.050    1.050
 qs_ks_update_qs_env_forces           7  7.0    0.000    0.000    1.001    1.001
 multiply_cannon                   4869 15.9    0.365    0.365    0.869    0.869
 dbcsr_finalize                   10396 16.2    0.112    0.112    0.864    0.864
 -------------------------------------------------------------------------------

 The number of warnings for this run is : 0
 
 -------------------------------------------------------------------------------
  **** **** ******  **  PROGRAM ENDED AT                 2022-06-06 07:49:07.627
 ***** ** ***  *** **   PROGRAM RAN ON                                    pop-os
 **    ****   ******    PROGRAM RAN BY                             woodrowwilson
 ***** **    ** ** **   PROGRAM PROCESS ID                                  3356
  **** **  *******  **  PROGRAM STOPPED IN /home/woodrowwilson/Documents/Worksho
                                           ps/MSU-DFT-Catalysis-School/1_Gas-Pha
                                           se-Molecules/2_O2/2_Spin-Polarized-Ge
                                           oOpt
