       2
 i =        1, E =       -31.7994154270
  O         3.8649239190        3.9999997520        3.9999998066
  O         5.1348911531        4.0000002492        4.0000001960
       2
 i =        2, E =       -31.8010881692
  O         3.8742226760        3.9999998564        3.9999997403
  O         5.1257281808        4.0000001435        4.0000002609
       2
 i =        3, E =       -31.8021037870
  O         3.8919170404        3.9999992298        4.0000002631
  O         5.1091239279        4.0000007728        3.9999997399
       2
 i =        4, E =       -31.8021469872
  O         3.8889104878        3.9999993706        4.0000001608
  O         5.1123072345        4.0000006388        3.9999998418
       2
 i =        5, E =       -31.8021492398
  O         3.8893831540        3.9999993127        4.0000002434
  O         5.1121886212        4.0000007019        3.9999997600
       2
 i =        6, E =       -31.8021504826
  O         3.8893831540        3.9999993127        4.0000002434
  O         5.1121886212        4.0000007019        3.9999997600
