 DBCSR| CPU Multiplication driver                                           XSMM
 DBCSR| Multrec recursion limit                                              512
 DBCSR| Multiplication stack size                                           1000
 DBCSR| Maximum elements for images                                    UNLIMITED
 DBCSR| Multiplicative factor virtual images                                   1
 DBCSR| Use multiplication densification                                       T
 DBCSR| Multiplication size stacks                                             3
 DBCSR| Use memory pool for CPU allocation                                     F
 DBCSR| OMP: Current number of threads                                        12
 DBCSR| OMP: Max number of threads                                            12
 DBCSR| Split modifier for TAS multiplication algorithm                  1.0E+00


  **** **** ******  **  PROGRAM STARTED AT               2022-06-05 21:08:46.783
 ***** ** ***  *** **   PROGRAM STARTED ON                                pop-os
 **    ****   ******    PROGRAM STARTED BY                         woodrowwilson
 ***** **    ** ** **   PROGRAM PROCESS ID                                  4595
  **** **  *******  **  PROGRAM STARTED IN /home/woodrowwilson/Documents/Worksho
                                           ps/MSU-DFT-Catalysis-School/1_Gas-Pha
                                           se-Molecules/1_H2/2_Spin-Polarized-Ge
                                           oOpt

 CP2K| version string:                                          CP2K version 9.1
 CP2K| source code revision number:                                  git:d8d7100
 CP2K| cp2kflags: omp libint fftw3 libxc xsmm plumed2 spglib libvori libbqb     
 CP2K| is freely available from                            https://www.cp2k.org/
 CP2K| Program compiled at                       Wed May 25 08:10:51 PM CDT 2022
 CP2K| Program compiled on                                                pop-os
 CP2K| Program compiled for                                PopOS-x86-64-gfortran
 CP2K| Data directory path            /home/woodrowwilson/Programs/cp2k/9.1/data
 CP2K| Input file name                                             cp2k-PADE.inp

 GLOBAL| Force Environment number                                              1
 GLOBAL| Basis set file name                                           BASIS_SET
 GLOBAL| Potential file name                                      GTH_POTENTIALS
 GLOBAL| MM Potential file name                                     MM_POTENTIAL
 GLOBAL| Coordinate file name                                      __STD_INPUT__
 GLOBAL| Method name                                                        CP2K
 GLOBAL| Project name                                                  H2-GeoOpt
 GLOBAL| Run type                                                        GEO_OPT
 GLOBAL| FFT library                                                       FFTW3
 GLOBAL| Diagonalization library                                       ScaLAPACK
 GLOBAL| Orthonormality check for eigenvectors                          DISABLED
 GLOBAL| Matrix multiplication library                                 ScaLAPACK
 GLOBAL| All-to-all communication in single precision                          F
 GLOBAL| FFTs using library dependent lengths                                  F
 GLOBAL| Grid backend                                                       AUTO
 GLOBAL| Global print level                                                  LOW
 GLOBAL| MPI I/O enabled                                                       T
 GLOBAL| Total number of message passing processes                             1
 GLOBAL| Number of threads for this process                                   12
 GLOBAL| This output is from process                                           0
 GLOBAL| Stack size for threads created by OpenMP (OMP_STACKSIZE)        default
 GLOBAL| CPU model name                 Intel(R) Core(TM) i7-9750H CPU @ 2.60GHz
 GLOBAL| CPUID                                                              1002

 MEMORY| system memory details [Kb]
 MEMORY|                        rank 0           min           max       average
 MEMORY| MemTotal             32580240      32580240      32580240      32580240
 MEMORY| MemFree              28335184      28335184      28335184      28335184
 MEMORY| Buffers                146064        146064        146064        146064
 MEMORY| Cached                2493084       2493084       2493084       2493084
 MEMORY| Slab                   218828        218828        218828        218828
 MEMORY| SReclaimable           113944        113944        113944        113944
 MEMORY| MemLikelyFree        31088276      31088276      31088276      31088276


 GENERATE|  Preliminary Number of Bonds generated:                             0
 GENERATE|  Achieved consistency in connectivity generation.

 *******************************************************************************
 *******************************************************************************
 **                                                                           **
 **     #####                         ##              ##                      **
 **    ##   ##            ##          ##              ##                      **
 **   ##     ##                       ##            ######                    **
 **   ##     ##  ##   ##  ##   #####  ##  ##   ####   ##    #####    #####    **
 **   ##     ##  ##   ##  ##  ##      ## ##   ##      ##   ##   ##  ##   ##   **
 **   ##  ## ##  ##   ##  ##  ##      ####     ###    ##   ######   ######    **
 **    ##  ###   ##   ##  ##  ##      ## ##      ##   ##   ##       ##        **
 **     #######   #####   ##   #####  ##  ##  ####    ##    #####   ##        **
 **           ##                                                    ##        **
 **                                                                           **
 **                                                ... make the atoms dance   **
 **                                                                           **
 **            Copyright (C) by CP2K developers group (2000-2021)             **
 **                      J. Chem. Phys. 152, 194103 (2020)                    **
 **                                                                           **
 *******************************************************************************


 TOTAL NUMBERS AND MAXIMUM NUMBERS

  Total number of            - Atomic kinds:                                   1
                             - Atoms:                                          2
                             - Shell sets:                                     4
                             - Shells:                                         6
                             - Primitive Cartesian functions:                 10
                             - Cartesian basis functions:                     10
                             - Spherical basis functions:                     10

  Maximum angular momentum of- Orbital basis functions:                        1
                             - Local part of the GTH pseudopotential:          2


 SCF PARAMETERS         Density guess:                                    ATOMIC
                        --------------------------------------------------------
                        max_scf:                                              50
                        max_scf_history:                                       0
                        max_diis:                                              4
                        --------------------------------------------------------
                        eps_scf:                                        1.00E-05
                        eps_scf_history:                                0.00E+00
                        eps_diis:                                       1.00E-01
                        eps_eigval:                                     1.00E-05
                        --------------------------------------------------------
                        level_shift [a.u.]:                                 0.00
                        --------------------------------------------------------
                        Outer loop SCF in use 
                        No variables optimised in outer loop
                        eps_scf                                         1.00E-05
                        max_scf                                               50
                        No outer loop optimization
                        step_size                                       5.00E-01

 *******************************************************************************
 ***                     STARTING GEOMETRY OPTIMIZATION                      ***
 ***                                 L-BFGS                                  ***
 *******************************************************************************

 --------------------------
 OPTIMIZATION STEP:      1
 --------------------------

 Spin 1

 Number of electrons:                                                          1
 Number of occupied orbitals:                                                  1
 Number of molecular orbitals:                                                 1

 Spin 2

 Number of electrons:                                                          1
 Number of occupied orbitals:                                                  1
 Number of molecular orbitals:                                                 1

 Number of orbital functions:                                                 10
 Number of independent orbital functions:                                     10

 Extrapolation method: initial_guess


 SCF WAVEFUNCTION OPTIMIZATION

  ----------------------------------- OT ---------------------------------------
  Minimizer      : DIIS                : direct inversion
                                         in the iterative subspace
                                         using   7 DIIS vectors
                                         safer DIIS on
  Preconditioner : FULL_SINGLE_INVERSE : inversion of 
                                         H + eS - 2*(Sc)(c^T*H*c+const)(Sc)^T
  Precond_solver : DEFAULT
  stepsize       :    0.08000000                  energy_gap     :    0.08000000
  eps_taylor     :   0.10000E-15                  max_taylor     :             4
  ----------------------------------- OT ---------------------------------------

  Step     Update method      Time    Convergence         Total energy    Change
  ------------------------------------------------------------------------------
     1 OT DIIS     0.80E-01    0.3     0.10032488        -1.0723205062 -1.07E+00
     2 OT DIIS     0.80E-01    0.2     0.08062181        -1.0868518952 -1.45E-02
     3 OT DIIS     0.80E-01    0.2     0.01296995        -1.1118182832 -2.50E-02
     4 OT DIIS     0.80E-01    0.2     0.00925477        -1.1120557217 -2.37E-04
     5 OT SD       0.80E-01    0.2     0.00137355        -1.1124569475 -4.01E-04
     6 OT SD       0.80E-01    0.2     0.00110272        -1.1124596659 -2.72E-06
     7 OT SD       0.80E-01    0.2     0.00089306        -1.1124614248 -1.76E-06
 Singular DIIS matrix
     8 OT SD       0.80E-01    0.2     0.00072963        -1.1124625830 -1.16E-06
 Singular DIIS matrix
     9 OT SD       0.80E-01    0.2     0.00060120        -1.1124633590 -7.76E-07
    10 OT DIIS     0.80E-01    0.2     0.00049935        -1.1124638879 -5.29E-07
    11 OT DIIS     0.80E-01    0.2     0.00002886        -1.1124651858 -1.30E-06
    12 OT DIIS     0.80E-01    0.2     0.00002354        -1.1124651866 -7.63E-10
    13 OT DIIS     0.80E-01    0.2     0.00000026        -1.1124651895 -2.93E-09

  *** SCF run converged in    13 steps ***


  Electronic density on regular grids:         -1.9999999994        0.0000000006
  Core density on regular grids:                1.9999999999       -0.0000000001
  Total charge density on r-space grids:        0.0000000004
  Total charge density g-space grids:           0.0000000004

  Overlap energy of the core charge distribution:               0.00000000001254
  Self energy of the core charge distribution:                 -2.82094791773878
  Core Hamiltonian energy:                                      0.82047624258737
  Hartree energy:                                               1.48129664236895
  Exchange-correlation energy:                                 -0.59329015676945

  Total energy:                                                -1.11246518953937

  outer SCF iter =    1 RMS gradient =   0.26E-06 energy =         -1.1124651895
  outer SCF loop converged in   1 iterations or   13 steps


  Integrated absolute spin density  :                               0.0000000000
  Ideal and single determinant S**2 :                    0.000000      -0.000000

 ENERGY| Total FORCE_EVAL ( QS ) energy [a.u.]:               -1.112465189539648

 Spin 1

 Number of electrons:                                                          1
 Number of occupied orbitals:                                                  1
 Number of molecular orbitals:                                                 1

 Spin 2

 Number of electrons:                                                          1
 Number of occupied orbitals:                                                  1
 Number of molecular orbitals:                                                 1

 Number of orbital functions:                                                 10
 Number of independent orbital functions:                                     10

 Extrapolation method: ASPC


 SCF WAVEFUNCTION OPTIMIZATION

  ----------------------------------- OT ---------------------------------------
  Minimizer      : DIIS                : direct inversion
                                         in the iterative subspace
                                         using   7 DIIS vectors
                                         safer DIIS on
  Preconditioner : FULL_SINGLE_INVERSE : inversion of 
                                         H + eS - 2*(Sc)(c^T*H*c+const)(Sc)^T
  Precond_solver : DEFAULT
  stepsize       :    0.08000000                  energy_gap     :    0.08000000
  eps_taylor     :   0.10000E-15                  max_taylor     :             4
  ----------------------------------- OT ---------------------------------------

  Step     Update method      Time    Convergence         Total energy    Change
  ------------------------------------------------------------------------------
     1 OT DIIS     0.80E-01    0.3     0.09932800        -0.9783140026 -9.78E-01
     2 OT DIIS     0.80E-01    0.3     0.08307075        -0.9928101071 -1.45E-02
     3 OT SD       0.80E-01    0.3     0.00314931        -1.0261684735 -3.34E-02
     4 OT DIIS     0.80E-01    0.3     0.00269619        -1.0261832003 -1.47E-05
     5 OT DIIS     0.80E-01    0.2     0.00015097        -1.0262237823 -4.06E-05
     6 OT SD       0.80E-01    0.2     0.00010188        -1.0262238436 -6.13E-08
     7 OT SD       0.80E-01    0.2     0.00008533        -1.0262238588 -1.53E-08
     8 OT DIIS     0.80E-01    0.2     0.00007149        -1.0262238695 -1.07E-08
     9 OT DIIS     0.80E-01    0.2     0.00000117        -1.0262238948 -2.53E-08

  *** SCF run converged in     9 steps ***


  Electronic density on regular grids:         -1.9999999997        0.0000000003
  Core density on regular grids:                1.9999999999       -0.0000000001
  Total charge density on r-space grids:        0.0000000001
  Total charge density g-space grids:           0.0000000001

  Overlap energy of the core charge distribution:               0.00186253129491
  Self energy of the core charge distribution:                 -2.82094791773878
  Core Hamiltonian energy:                                      1.22191555190178
  Hartree energy:                                               1.32343958610930
  Exchange-correlation energy:                                 -0.75249364640213

  Total energy:                                                -1.02622389483492

  outer SCF iter =    1 RMS gradient =   0.12E-05 energy =         -1.0262238948
  outer SCF loop converged in   1 iterations or    9 steps


  Integrated absolute spin density  :                               0.0000000000
  Ideal and single determinant S**2 :                    0.000000      -0.000000

 ENERGY| Total FORCE_EVAL ( QS ) energy [a.u.]:               -1.026223894841605

 Spin 1

 Number of electrons:                                                          1
 Number of occupied orbitals:                                                  1
 Number of molecular orbitals:                                                 1

 Spin 2

 Number of electrons:                                                          1
 Number of occupied orbitals:                                                  1
 Number of molecular orbitals:                                                 1

 Number of orbital functions:                                                 10
 Number of independent orbital functions:                                     10

 Extrapolation method: ASPC


 SCF WAVEFUNCTION OPTIMIZATION

  ----------------------------------- OT ---------------------------------------
  Minimizer      : DIIS                : direct inversion
                                         in the iterative subspace
                                         using   7 DIIS vectors
                                         safer DIIS on
  Preconditioner : FULL_SINGLE_INVERSE : inversion of 
                                         H + eS - 2*(Sc)(c^T*H*c+const)(Sc)^T
  Precond_solver : DEFAULT
  stepsize       :    0.08000000                  energy_gap     :    0.08000000
  eps_taylor     :   0.10000E-15                  max_taylor     :             4
  ----------------------------------- OT ---------------------------------------

  Step     Update method      Time    Convergence         Total energy    Change
  ------------------------------------------------------------------------------
     1 OT DIIS     0.80E-01    0.4     0.15832804        -1.0196001972 -1.02E+00
     2 OT DIIS     0.80E-01    0.3     0.13213498        -1.0564261742 -3.68E-02
     3 OT DIIS     0.80E-01    0.2     0.01981652        -1.1315228764 -7.51E-02
     4 OT DIIS     0.80E-01    0.3     0.09160956        -1.0978211425  3.37E-02
     5 OT DIIS     0.80E-01    0.2     0.00375348        -1.1330544124 -3.52E-02
     6 OT DIIS     0.80E-01    0.2     0.13760290        -1.0501603658  8.29E-02
     7 OT SD       0.80E-01    0.2     0.00212676        -1.1330929383 -8.29E-02
     8 OT DIIS     0.80E-01    0.2     0.00170461        -1.1330994569 -6.52E-06
     9 OT SD       0.80E-01    0.2     0.00007696        -1.1331111841 -1.17E-05
    10 OT DIIS     0.80E-01    0.2     0.00006169        -1.1331111926 -8.54E-09
    11 OT DIIS     0.80E-01    0.2     0.00001054        -1.1331112076 -1.50E-08
    12 OT DIIS     0.80E-01    0.2     0.00000899        -1.1331112077 -1.23E-10

  *** SCF run converged in    12 steps ***


  Electronic density on regular grids:         -1.9999999995        0.0000000005
  Core density on regular grids:                1.9999999999       -0.0000000001
  Total charge density on r-space grids:        0.0000000003
  Total charge density g-space grids:           0.0000000003

  Overlap energy of the core charge distribution:               0.00000004370086
  Self energy of the core charge distribution:                 -2.82094791773878
  Core Hamiltonian energy:                                      0.91791272067132
  Hartree energy:                                               1.40736184956195
  Exchange-correlation energy:                                 -0.63743790390368

  Total energy:                                                -1.13311120770833

  outer SCF iter =    1 RMS gradient =   0.90E-05 energy =         -1.1331112077
  outer SCF loop converged in   1 iterations or   12 steps


  Integrated absolute spin density  :                               0.0000000000
  Ideal and single determinant S**2 :                    0.000000       0.000000

 ENERGY| Total FORCE_EVAL ( QS ) energy [a.u.]:               -1.133111208034739

 --------  Informations at step =     1 ------------
  Optimization Method        =                LBFGS
  Total Energy               =        -1.1331112080
  Real energy change         =        -0.0206460185
  Decrease in energy         =                  YES
  Used time                  =                9.085

  Convergence check :
  Max. step size             =         0.3624532716
  Conv. limit for step size  =         0.0030000000
  Convergence in step size   =                   NO
  RMS step size              =         0.1479709285
  Conv. limit for RMS step   =         0.0030000000
  Convergence in RMS step    =                   NO
  Max. gradient              =         0.0248898730
  Conv. limit for gradients  =         0.0030000000
  Conv. for gradients        =                   NO
  RMS gradient               =         0.0101612481
  Conv. limit for RMS grad.  =         0.0030000000
  Conv. for gradients        =                   NO
 ---------------------------------------------------

 --------------------------
 OPTIMIZATION STEP:      2
 --------------------------

 Spin 1

 Number of electrons:                                                          1
 Number of occupied orbitals:                                                  1
 Number of molecular orbitals:                                                 1

 Spin 2

 Number of electrons:                                                          1
 Number of occupied orbitals:                                                  1
 Number of molecular orbitals:                                                 1

 Number of orbital functions:                                                 10
 Number of independent orbital functions:                                     10

 Extrapolation method: ASPC


 SCF WAVEFUNCTION OPTIMIZATION

  ----------------------------------- OT ---------------------------------------
  Minimizer      : DIIS                : direct inversion
                                         in the iterative subspace
                                         using   7 DIIS vectors
                                         safer DIIS on
  Preconditioner : FULL_SINGLE_INVERSE : inversion of 
                                         H + eS - 2*(Sc)(c^T*H*c+const)(Sc)^T
  Precond_solver : DEFAULT
  stepsize       :    0.08000000                  energy_gap     :    0.08000000
  eps_taylor     :   0.10000E-15                  max_taylor     :             4
  ----------------------------------- OT ---------------------------------------

  Step     Update method      Time    Convergence         Total energy    Change
  ------------------------------------------------------------------------------
     1 OT DIIS     0.80E-01    0.4     0.15782847        -1.0170202426 -1.02E+00
     2 OT DIIS     0.80E-01    0.2     0.13185373        -1.0536227394 -3.66E-02
     3 OT SD       0.80E-01    0.2     0.01360670        -1.1319972088 -7.84E-02
     4 OT DIIS     0.80E-01    0.2     0.01115375        -1.1322667257 -2.70E-04
     5 OT DIIS     0.80E-01    0.2     0.00539541        -1.1326958200 -4.29E-04
     6 OT DIIS     0.80E-01    0.2     0.00230192        -1.1327990671 -1.03E-04
     7 OT DIIS     0.80E-01    0.2     0.00219150        -1.1328012268 -2.16E-06
     8 OT DIIS     0.80E-01    0.2     0.00067536        -1.1328200856 -1.89E-05
     9 OT DIIS     0.80E-01    0.2     0.00005397        -1.1328220512 -1.97E-06
    10 OT DIIS     0.80E-01    0.2     0.00000117        -1.1328220638 -1.26E-08

  *** SCF run converged in    10 steps ***


  Electronic density on regular grids:         -1.9999999996        0.0000000004
  Core density on regular grids:                1.9999999999       -0.0000000001
  Total charge density on r-space grids:        0.0000000003
  Total charge density g-space grids:           0.0000000003

  Overlap energy of the core charge distribution:               0.00000117787139
  Self energy of the core charge distribution:                 -2.82094791773878
  Core Hamiltonian energy:                                      0.97992596728440
  Hartree energy:                                               1.37110681153184
  Exchange-correlation energy:                                 -0.66290810273427

  Total energy:                                                -1.13282206378543

  outer SCF iter =    1 RMS gradient =   0.12E-05 energy =         -1.1328220638
  outer SCF loop converged in   1 iterations or   10 steps


  Integrated absolute spin density  :                               0.0000000000
  Ideal and single determinant S**2 :                    0.000000      -0.000000

 ENERGY| Total FORCE_EVAL ( QS ) energy [a.u.]:               -1.132822063791388

 Spin 1

 Number of electrons:                                                          1
 Number of occupied orbitals:                                                  1
 Number of molecular orbitals:                                                 1

 Spin 2

 Number of electrons:                                                          1
 Number of occupied orbitals:                                                  1
 Number of molecular orbitals:                                                 1

 Number of orbital functions:                                                 10
 Number of independent orbital functions:                                     10

 Extrapolation method: ASPC


 SCF WAVEFUNCTION OPTIMIZATION

  ----------------------------------- OT ---------------------------------------
  Minimizer      : DIIS                : direct inversion
                                         in the iterative subspace
                                         using   7 DIIS vectors
                                         safer DIIS on
  Preconditioner : FULL_SINGLE_INVERSE : inversion of 
                                         H + eS - 2*(Sc)(c^T*H*c+const)(Sc)^T
  Precond_solver : DEFAULT
  stepsize       :    0.08000000                  energy_gap     :    0.08000000
  eps_taylor     :   0.10000E-15                  max_taylor     :             4
  ----------------------------------- OT ---------------------------------------

  Step     Update method      Time    Convergence         Total energy    Change
  ------------------------------------------------------------------------------
     1 OT DIIS     0.80E-01    0.4     0.12142938        -1.0652588252 -1.07E+00
     2 OT DIIS     0.80E-01    0.2     0.10151100        -1.0869283455 -2.17E-02
     3 OT DIIS     0.80E-01    0.2     0.01036669        -1.1337334964 -4.68E-02
     4 OT DIIS     0.80E-01    0.2     0.03678653        -1.1282724942  5.46E-03
     5 OT DIIS     0.80E-01    0.2     0.00134223        -1.1341970496 -5.92E-03
     6 OT DIIS     0.80E-01    0.2     0.00104557        -1.1342001128 -3.06E-06
     7 OT DIIS     0.80E-01    0.2     0.00014515        -1.1342047888 -4.68E-06
     8 OT DIIS     0.80E-01    0.2     0.00003817        -1.1342048727 -8.39E-08
     9 OT DIIS     0.80E-01    0.2     0.00000520        -1.1342048792 -6.48E-09

  *** SCF run converged in     9 steps ***


  Electronic density on regular grids:         -1.9999999996        0.0000000004
  Core density on regular grids:                1.9999999999       -0.0000000001
  Total charge density on r-space grids:        0.0000000003
  Total charge density g-space grids:           0.0000000003

  Overlap energy of the core charge distribution:               0.00000022238659
  Self energy of the core charge distribution:                 -2.82094791773878
  Core Hamiltonian energy:                                      0.94623257343522
  Hartree energy:                                               1.38977210966720
  Exchange-correlation energy:                                 -0.64926186693796

  Total energy:                                                -1.13420487918773

  outer SCF iter =    1 RMS gradient =   0.52E-05 energy =         -1.1342048792
  outer SCF loop converged in   1 iterations or    9 steps


  Integrated absolute spin density  :                               0.0000000000
  Ideal and single determinant S**2 :                    0.000000      -0.000000

 ENERGY| Total FORCE_EVAL ( QS ) energy [a.u.]:               -1.134204879292465

 --------  Informations at step =     2 ------------
  Optimization Method        =                LBFGS
  Total Energy               =        -1.1342048793
  Real energy change         =        -0.0010936713
  Decrease in energy         =                  YES
  Used time                  =                5.232

  Convergence check :
  Max. step size             =         0.0818284788
  Conv. limit for step size  =         0.0030000000
  Convergence in step size   =                   NO
  RMS step size              =         0.0334063366
  Conv. limit for RMS step   =         0.0030000000
  Convergence in RMS step    =                   NO
  Max. gradient              =         0.0007463816
  Conv. limit for gradients  =         0.0030000000
  Conv. in gradients         =                  YES
  RMS gradient               =         0.0003047090
  Conv. limit for RMS grad.  =         0.0030000000
  Conv. in RMS gradients     =                  YES
 ---------------------------------------------------

 --------------------------
 OPTIMIZATION STEP:      3
 --------------------------

 Spin 1

 Number of electrons:                                                          1
 Number of occupied orbitals:                                                  1
 Number of molecular orbitals:                                                 1

 Spin 2

 Number of electrons:                                                          1
 Number of occupied orbitals:                                                  1
 Number of molecular orbitals:                                                 1

 Number of orbital functions:                                                 10
 Number of independent orbital functions:                                     10

 Extrapolation method: ASPC


 SCF WAVEFUNCTION OPTIMIZATION

  ----------------------------------- OT ---------------------------------------
  Minimizer      : DIIS                : direct inversion
                                         in the iterative subspace
                                         using   7 DIIS vectors
                                         safer DIIS on
  Preconditioner : FULL_SINGLE_INVERSE : inversion of 
                                         H + eS - 2*(Sc)(c^T*H*c+const)(Sc)^T
  Precond_solver : DEFAULT
  stepsize       :    0.08000000                  energy_gap     :    0.08000000
  eps_taylor     :   0.10000E-15                  max_taylor     :             4
  ----------------------------------- OT ---------------------------------------

  Step     Update method      Time    Convergence         Total energy    Change
  ------------------------------------------------------------------------------
     1 OT DIIS     0.80E-01    0.3     0.07695496        -1.1054223290 -1.11E+00
     2 OT DIIS     0.80E-01    0.2     0.06436323        -1.1141234373 -8.70E-03
     3 OT DIIS     0.80E-01    0.2     0.00359193        -1.1341375636 -2.00E-02
     4 OT DIIS     0.80E-01    0.2     0.01555341        -1.1330674022  1.07E-03
     5 OT DIIS     0.80E-01    0.2     0.00003693        -1.1342056857 -1.14E-03
     6 OT DIIS     0.80E-01    0.3     0.00010259        -1.1342056391  4.66E-08
     7 OT DIIS     0.80E-01    0.3     0.00009856        -1.1342056464 -7.36E-09
     8 OT DIIS     0.80E-01    0.3     0.00456843        -1.1341004678  1.05E-04
     9 OT DIIS     0.80E-01    0.2     0.00094026        -1.1342010600 -1.01E-04
    10 OT DIIS     0.80E-01    0.2     0.00000008        -1.1342056922 -4.63E-06

  *** SCF run converged in    10 steps ***


  Electronic density on regular grids:         -1.9999999996        0.0000000004
  Core density on regular grids:                1.9999999999       -0.0000000001
  Total charge density on r-space grids:        0.0000000003
  Total charge density g-space grids:           0.0000000003

  Overlap energy of the core charge distribution:               0.00000023356791
  Self energy of the core charge distribution:                 -2.82094791773878
  Core Hamiltonian energy:                                      0.94716730027358
  Hartree energy:                                               1.38921924895801
  Exchange-correlation energy:                                 -0.64964455727352

  Total energy:                                                -1.13420569221281

  outer SCF iter =    1 RMS gradient =   0.76E-07 energy =         -1.1342056922
  outer SCF loop converged in   1 iterations or   10 steps


  Integrated absolute spin density  :                               0.0000000000
  Ideal and single determinant S**2 :                    0.000000      -0.000000

 ENERGY| Total FORCE_EVAL ( QS ) energy [a.u.]:               -1.134205692212829

 --------  Informations at step =     3 ------------
  Optimization Method        =                LBFGS
  Total Energy               =        -1.1342056922
  Real energy change         =        -0.0000008129
  Decrease in energy         =                  YES
  Used time                  =                3.088

  Convergence check :
  Max. step size             =         0.0025296783
  Conv. limit for step size  =         0.0030000000
  Convergence in step size   =                  YES
  RMS step size              =         0.0010327369
  Conv. limit for RMS step   =         0.0030000000
  Convergence in RMS step    =                  YES
  Max. gradient              =         0.0001072394
  Conv. limit for gradients  =         0.0030000000
  Conv. in gradients         =                  YES
  RMS gradient               =         0.0000437803
  Conv. limit for RMS grad.  =         0.0030000000
  Conv. in RMS gradients     =                  YES
 ---------------------------------------------------

 *******************************************************************************
 ***                    GEOMETRY OPTIMIZATION COMPLETED                      ***
 *******************************************************************************

                    Reevaluating energy at the minimum

 Spin 1

 Number of electrons:                                                          1
 Number of occupied orbitals:                                                  1
 Number of molecular orbitals:                                                 1

 Spin 2

 Number of electrons:                                                          1
 Number of occupied orbitals:                                                  1
 Number of molecular orbitals:                                                 1

 Number of orbital functions:                                                 10
 Number of independent orbital functions:                                     10

 Extrapolation method: ASPC


 SCF WAVEFUNCTION OPTIMIZATION

  ----------------------------------- OT ---------------------------------------
  Minimizer      : DIIS                : direct inversion
                                         in the iterative subspace
                                         using   7 DIIS vectors
                                         safer DIIS on
  Preconditioner : FULL_SINGLE_INVERSE : inversion of 
                                         H + eS - 2*(Sc)(c^T*H*c+const)(Sc)^T
  Precond_solver : DEFAULT
  stepsize       :    0.08000000                  energy_gap     :    0.08000000
  eps_taylor     :   0.10000E-15                  max_taylor     :             4
  ----------------------------------- OT ---------------------------------------

  Step     Update method      Time    Convergence         Total energy    Change
  ------------------------------------------------------------------------------
     1 OT DIIS     0.80E-01    0.7     0.02431202        -1.1313189962 -1.13E+00
     2 OT DIIS     0.80E-01    0.2     0.02033254        -1.1321873274 -8.68E-04
     3 OT DIIS     0.80E-01    0.2     0.00104176        -1.1341998605 -2.01E-03
     4 OT DIIS     0.80E-01    0.2     0.00064120        -1.1342036608 -3.80E-06
     5 OT SD       0.80E-01    0.2     0.00012361        -1.1342056167 -1.96E-06
     6 OT DIIS     0.80E-01    0.2     0.00010352        -1.1342056392 -2.25E-08
     7 OT DIIS     0.80E-01    0.2     0.00004384        -1.1342056827 -4.36E-08
     8 OT DIIS     0.80E-01    0.2     0.00007321        -1.1342056659  1.68E-08
     9 OT DIIS     0.80E-01    0.2     0.00000016        -1.1342056922 -2.63E-08

  *** SCF run converged in     9 steps ***


  Electronic density on regular grids:         -1.9999999996        0.0000000004
  Core density on regular grids:                1.9999999999       -0.0000000001
  Total charge density on r-space grids:        0.0000000003
  Total charge density g-space grids:           0.0000000003

  Overlap energy of the core charge distribution:               0.00000023356791
  Self energy of the core charge distribution:                 -2.82094791773878
  Core Hamiltonian energy:                                      0.94716668096001
  Hartree energy:                                               1.38921969494486
  Exchange-correlation energy:                                 -0.64964438394671

  Total energy:                                                -1.13420569221270

  outer SCF iter =    1 RMS gradient =   0.16E-06 energy =         -1.1342056922
  outer SCF loop converged in   1 iterations or    9 steps


  Integrated absolute spin density  :                               0.0000000000
  Ideal and single determinant S**2 :                    0.000000       0.000000

 ENERGY| Total FORCE_EVAL ( QS ) energy [a.u.]:               -1.134205692212705

 -------------------------------------------------------------------------------
 -                                                                             -
 -                                DBCSR STATISTICS                             -
 -                                                                             -
 -------------------------------------------------------------------------------
 COUNTER                                    TOTAL       BLAS       SMM       ACC
 flops     1 x     1 x    10                  280       0.0%    100.0%      0.0%
 flops     5 x     1 x     1                14400       0.0%    100.0%      0.0%
 flops     5 x     5 x     1                27600       0.0%    100.0%      0.0%
 flops     5 x     1 x    10                31600       0.0%    100.0%      0.0%
 flops     5 x     1 x     5                79000       0.0%    100.0%      0.0%
 flops inhomo. stacks                       14060     100.0%      0.0%      0.0%
 flops total                       166.940000E+03       8.4%     91.6%      0.0%
 flops max/rank                    166.940000E+03       8.4%     91.6%      0.0%
 matmuls inhomo. stacks                      1972     100.0%      0.0%      0.0%
 matmuls total                               5874      33.6%     66.4%      0.0%
 number of processed stacks                  4900      40.2%     59.8%      0.0%
 average stack size                                     1.0       1.3       0.0
 marketing flops                   176.420000E+03
 -------------------------------------------------------------------------------
 # multiplications                           3457
 max memory usage/rank             675.409920E+06
 # max total images/rank                        1
 # max 3D layers                                1
 # MPI messages exchanged                       0
 -------------------------------------------------------------------------------

 -------------------------------------------------------------------------------
 -                                                                             -
 -                                GRID STATISTICS                              -
 -                                                                             -
 -------------------------------------------------------------------------------
 LP    KERNEL             BACKEND                              COUNT     PERCENT
 0     collocate ortho    REF                                  10270      35.52%
 0     integrate ortho    REF                                   9360      32.37%
 1     collocate ortho    REF                                   3792      13.11%
 1     integrate ortho    REF                                   3456      11.95%
 3     integrate ortho    REF                                    780       2.70%
 2     collocate ortho    REF                                    474       1.64%
 2     integrate ortho    REF                                    432       1.49%
 4     integrate ortho    REF                                    288       1.00%
 5     integrate ortho    REF                                     36       0.12%
 0     collocate general  REF                                     14       0.05%
 3     integrate general  REF                                     12       0.04%
 -------------------------------------------------------------------------------

 MEMORY| Estimated peak process memory [MiB]                                 645

 -------------------------------------------------------------------------------
 -                                                                             -
 -                           R E F E R E N C E S                               -
 -                                                                             -
 -------------------------------------------------------------------------------
 
 CP2K version 9.1, the CP2K developers group (2021).
 CP2K is freely available from https://www.cp2k.org/ .

 Kuehne,Thomas D.; Iannuzzi,Marcella; Del Ben,Mauro;
 Rybkin,Vladimir V.; Seewald,Patrick; Stein,Frederick; Laino,Teodoro;
 Khaliullin,Rustam Z.; Schuett,Ole; Schiffmann,Florian; Golze,Dorothea;
 Wilhelm,Jan; Chulkov,Sergey; Bani-Hashemian,Mohammad Hossein;
 Weber,Valery; Borstnik,Urban; Taillefumier,Mathieu;
 Jakobovits,Alice Shoshana; Lazzaro,Alfio; Pabst,Hans; Mueller,Tiziano;
 Schade,Robert; Guidon,Manuel; Andermatt,Samuel; Holmberg,Nico;
 Schenter,Gregory K.; Hehn,Anna; Bussy,Augustin; Belleflamme,Fabian;
 Tabacchi,Gloria; Gloess,Andreas; Lass,Michael; Bethune,Iain;
 Mundy,Christopher J.; Plessl,Christian; Watkins,Matt;
 VandeVondele,Joost; Krack,Matthias; Hutter,Juerg. 
 The Journal of Chemical Physics, 152 (19), (2020). 
 CP2K: An electronic structure and molecular dynamics software package -
 Quickstep: Efficient and accurate electronic structure calculations.
 https://doi.org/10.1063/5.0007045

 Schuett, Ole; Messmer, Peter; Hutter, Juerg; VandeVondele, Joost. 
 Electronic Structure Calculations on Graphics Processing Units, John
 Wiley & Sons, Ltd, 173-190 (2016). 
 GPU-Accelerated Sparse Matrix-Matrix Multiplication for
 Linear Scaling Density Functional Theory.
 https://doi.org/10.1002/9781118670712.ch8

 Heinecke, A; Henry, G; Hutchinson, M; Pabst, H. 
 Proceedings of Intl. Supercomputing Conference, 981-991 (2016). 
 LIBXSMM: Accelerating Small Matrix Multiplications
 by Runtime Code Generation.
 https://doi.org/10.1109/SC.2016.83

 Borstnik, U; VandeVondele, J; Weber, V; Hutter, J. 
 PARALLEL COMPUTING, 40 (5-6), 47-58 (2014). 
 Sparse matrix multiplication: The distributed block-compressed sparse
 row library.
 https://doi.org/10.1016/j.parco.2014.03.012

 Hutter, J; Iannuzzi, M; Schiffmann, F; VandeVondele, J. 
 WIREs Comput Mol Sci., 4 (1), 15-25 (2014). 
 CP2K: atomistic simulations of condensed matter systems.
 https://doi.org/10.1002/wcms.1159

 Kuhne, TD; Krack, M; Mohamed, FR; Parrinello, M. 
 PHYSICAL REVIEW LETTERS, 98 (6), 066401 (2007). 
 Efficient and accurate Car-Parrinello-like approach to
 Born-Oppenheimer molecular dynamics.
 https://doi.org/10.1103/PhysRevLett.98.066401

 Krack, M. 
 THEORETICAL CHEMISTRY ACCOUNTS, 114 (1-3), 145-152 (2005). 
 Pseudopotentials for H to Kr optimized for gradient-corrected
 exchange-correlation functionals.
 https://doi.org/10.1007/s00214-005-0655-y

 VandeVondele, J; Krack, M; Mohamed, F; Parrinello, M; Chassaing, T;
 Hutter, J. COMPUTER PHYSICS COMMUNICATIONS, 167 (2), 103-128 (2005). 
 QUICKSTEP: Fast and accurate density functional calculations using a
 mixed Gaussian and plane waves approach.
 https://doi.org/10.1016/j.cpc.2004.12.014

 Frigo, M; Johnson, SG. 
 PROCEEDINGS OF THE IEEE, 93 (2), 216-231 (2005). 
 The design and implementation of FFTW3.
 https://doi.org/10.1109/JPROC.2004.840301

 Kolafa, J. 
 JOURNAL OF COMPUTATIONAL CHEMISTRY, 25 (3), 335-342 (2004). 
 Time-reversible always stable predictor-corrector method for
 molecular dynamics of polarizable molecules.
 https://doi.org/10.1002/jcc.10385

 VandeVondele, J; Hutter, J. 
 JOURNAL OF CHEMICAL PHYSICS, 118 (10), 4365-4369 (2003). 
 An efficient orbital transformation method for electronic structure
 calculations.
 https://doi.org/10.1063/1.1543154

 Hartwigsen, C; Goedecker, S; Hutter, J. 
 PHYSICAL REVIEW B, 58 (7), 3641-3662 (1998). 
 Relativistic separable dual-space Gaussian pseudopotentials from H to Rn.
 https://doi.org/10.1103/PhysRevB.58.3641

 Lippert, G; Hutter, J; Parrinello, M. 
 MOLECULAR PHYSICS, 92 (3), 477-487 (1997). 
 A hybrid Gaussian and plane wave density functional scheme.
 https://doi.org/10.1080/002689797170220

 Goedecker, S; Teter, M; Hutter, J. 
 PHYSICAL REVIEW B, 54 (3), 1703-1710 (1996). 
 Separable dual-space Gaussian pseudopotentials.
 https://doi.org/10.1103/PhysRevB.54.1703

 BYRD, RH; LU, PH; NOCEDAL, J; ZHU, CY. 
 SIAM JOURNAL ON SCIENTIFIC COMPUTING, 16 (5), 1190-1208 (1995). 
 A LIMITED MEMORY ALGORITHM FOR BOUND CONSTRAINED OPTIMIZATION.
 https://doi.org/10.1137/0916069


 -------------------------------------------------------------------------------
 -                                                                             -
 -                                T I M I N G                                  -
 -                                                                             -
 -------------------------------------------------------------------------------
 SUBROUTINE                       CALLS  ASD         SELF TIME        TOTAL TIME
                                MAXIMUM       AVERAGE  MAXIMUM  AVERAGE  MAXIMUM
 CP2K                                 1  1.0    0.033    0.033   20.153   20.153
 cp_geo_opt                           1  2.0    0.000    0.000   19.961   19.961
 geoopt_lbfgs                         1  3.0    0.000    0.000   19.961   19.961
 cp_eval_at                           7  4.9    0.001    0.001   19.954   19.954
 qs_energies                          7  6.7    0.000    0.000   19.076   19.076
 cp_opt_gopt_step                     3  4.0    0.001    0.001   17.411   17.411
 qs_forces                            6  6.0    0.000    0.000   17.404   17.404
 scf_env_do_scf                       7  7.7    0.001    0.001   17.346   17.346
 scf_env_do_scf_inner_loop           72  8.8    0.006    0.006   14.946   14.946
 rebuild_ks_matrix                   78 10.5    0.000    0.000    7.969    7.969
 qs_ks_build_kohn_sham_matrix        78 11.5    0.009    0.009    7.968    7.968
 qs_rho_update_rho                   79  9.8    0.001    0.001    7.459    7.459
 calculate_rho_elec                 158 10.8    0.801    0.801    7.458    7.458
 qs_ks_update_qs_env                 79  9.7    0.001    0.001    7.102    7.102
 pw_transfer                       1655 13.9    0.082    0.082    7.093    7.093
 fft_wrap_pw1pw2                   1499 14.9    0.010    0.010    6.825    6.825
 fft_wrap_pw1pw2_170                557 15.5    0.508    0.508    5.963    5.963
 density_rs2pw                      158 11.8    0.007    0.007    4.433    4.433
 fft3d_s                           1500 16.9    4.376    4.376    4.386    4.386
 sum_up_and_integrate                78 12.5    0.177    0.177    2.998    2.998
 integrate_v_rspace                 156 13.5    0.005    0.005    2.821    2.821
 qs_scf_new_mos                      72  9.8    0.000    0.000    2.782    2.782
 qs_scf_loop_do_ot                   72 10.8    0.000    0.000    2.781    2.781
 potential_pw2rs                    156 14.5    0.047    0.047    2.707    2.707
 ot_scf_mini                         72 11.8    0.002    0.002    2.683    2.683
 qs_vxc_create                       78 12.5    0.001    0.001    2.481    2.481
 xc_vxc_pw_create                    78 13.5    0.354    0.354    2.480    2.480
 init_scf_loop                        7  8.7    0.000    0.000    2.395    2.395
 dbcsr_multiply_generic            3457 14.8    0.121    0.121    2.352    2.352
 grid_collocate_task_list           158 11.8    2.225    2.225    2.225    2.225
 xc_rho_set_and_dset_create          78 14.5    0.004    0.004    2.125    2.125
 xc_functional_eval                  78 15.5    2.012    2.012    2.012    2.012
 ot_mini                             72 12.8    0.001    0.001    1.808    1.808
 qs_ot_get_derivative               144 13.8    0.001    0.001    1.601    1.601
 init_scf_run                         7  7.7    0.000    0.000    1.526    1.526
 scf_env_initial_rho_setup            7  8.7    0.000    0.000    1.525    1.525
 pw_poisson_solve                    78 12.5    0.277    0.277    1.282    1.282
 wfi_extrapolate                      7  9.7    0.000    0.000    1.266    1.266
 prepare_preconditioner               7  9.7    0.000    0.000    1.136    1.136
 make_preconditioner                 14 10.7    0.000    0.000    1.136    1.136
 make_full_single_inverse            14 11.7    0.001    0.001    1.017    1.017
 pw_gather_s                        795 16.3    0.988    0.988    0.988    0.988
 make_m2s                          6914 15.8    0.064    0.064    0.975    0.975
 arnoldi_generalized_ev              14 12.7    0.000    0.000    0.947    0.947
 dbcsr_add_d                       2692 14.8    0.003    0.003    0.880    0.880
 dbcsr_add_anytype                 2692 15.8    0.259    0.259    0.877    0.877
 gev_update_data                     14 13.7    0.000    0.000    0.871    0.871
 qs_ks_update_qs_env_forces           6  7.0    0.000    0.000    0.869    0.869
 pw_scatter_s                       704 17.6    0.847    0.847    0.847    0.847
 dbcsr_finalize                    7450 16.1    0.061    0.061    0.822    0.822
 pw_integral_ab                     114 12.7    0.752    0.752    0.752    0.752
 fft_wrap_pw1pw2_60                 314 16.2    0.072    0.072    0.681    0.681
 pw_copy                           1039 15.1    0.673    0.673    0.673    0.673
 dbcsr_iterator_start             39349 18.0    0.639    0.639    0.665    0.665
 dbcsr_merge_all                   6727 17.1    0.556    0.556    0.647    0.647
 qs_ot_get_p                        158 12.6    0.001    0.001    0.624    0.624
 multiply_cannon                   3457 15.8    0.274    0.274    0.587    0.587
 qs_ot_get_derivative_diag           82 15.0    0.002    0.002    0.582    0.582
 qs_ot_get_derivative_taylor         62 14.4    0.002    0.002    0.517    0.517
 make_images                       6914 16.8    0.156    0.156    0.510    0.510
 dbcsr_complete_redistribute        510 14.6    0.014    0.014    0.491    0.491
 pw_axpy                            795 12.7    0.488    0.488    0.488    0.488
 -------------------------------------------------------------------------------

 The number of warnings for this run is : 0
 
 -------------------------------------------------------------------------------
  **** **** ******  **  PROGRAM ENDED AT                 2022-06-05 21:09:07.129
 ***** ** ***  *** **   PROGRAM RAN ON                                    pop-os
 **    ****   ******    PROGRAM RAN BY                             woodrowwilson
 ***** **    ** ** **   PROGRAM PROCESS ID                                  4595
  **** **  *******  **  PROGRAM STOPPED IN /home/woodrowwilson/Documents/Worksho
                                           ps/MSU-DFT-Catalysis-School/1_Gas-Pha
                                           se-Molecules/1_H2/2_Spin-Polarized-Ge
                                           oOpt
