 DBCSR| CPU Multiplication driver                                           XSMM
 DBCSR| Multrec recursion limit                                              512
 DBCSR| Multiplication stack size                                           1000
 DBCSR| Maximum elements for images                                    UNLIMITED
 DBCSR| Multiplicative factor virtual images                                   1
 DBCSR| Use multiplication densification                                       T
 DBCSR| Multiplication size stacks                                             3
 DBCSR| Use memory pool for CPU allocation                                     F
 DBCSR| OMP: Current number of threads                                        12
 DBCSR| OMP: Max number of threads                                            12
 DBCSR| Split modifier for TAS multiplication algorithm                  1.0E+00


  **** **** ******  **  PROGRAM STARTED AT               2022-06-06 23:38:42.677
 ***** ** ***  *** **   PROGRAM STARTED ON                                pop-os
 **    ****   ******    PROGRAM STARTED BY                         woodrowwilson
 ***** **    ** ** **   PROGRAM PROCESS ID                                  5340
  **** **  *******  **  PROGRAM STARTED IN /home/woodrowwilson/Documents/Worksho
                                           ps/MSU-DFT-Catalysis-School/2_Solids/
                                           1_CELLOPT/2_cellopt

 CP2K| version string:                                          CP2K version 9.1
 CP2K| source code revision number:                                  git:d8d7100
 CP2K| cp2kflags: omp libint fftw3 libxc xsmm plumed2 spglib libvori libbqb     
 CP2K| is freely available from                            https://www.cp2k.org/
 CP2K| Program compiled at                       Wed May 25 08:10:51 PM CDT 2022
 CP2K| Program compiled on                                                pop-os
 CP2K| Program compiled for                                PopOS-x86-64-gfortran
 CP2K| Data directory path            /home/woodrowwilson/Programs/cp2k/9.1/data
 CP2K| Input file name                                             cp2k-PADE.inp

 GLOBAL| Force Environment number                                              1
 GLOBAL| Basis set file name                                           BASIS_SET
 GLOBAL| Potential file name                                      GTH_POTENTIALS
 GLOBAL| MM Potential file name                                     MM_POTENTIAL
 GLOBAL| Coordinate file name                                      __STD_INPUT__
 GLOBAL| Method name                                                        CP2K
 GLOBAL| Project name                                                 Au-CellOpt
 GLOBAL| Run type                                                       CELL_OPT
 GLOBAL| FFT library                                                       FFTW3
 GLOBAL| Diagonalization library                                       ScaLAPACK
 GLOBAL| Orthonormality check for eigenvectors                          DISABLED
 GLOBAL| Matrix multiplication library                                 ScaLAPACK
 GLOBAL| All-to-all communication in single precision                          F
 GLOBAL| FFTs using library dependent lengths                                  F
 GLOBAL| Grid backend                                                       AUTO
 GLOBAL| Global print level                                               MEDIUM
 GLOBAL| MPI I/O enabled                                                       T
 GLOBAL| Total number of message passing processes                             1
 GLOBAL| Number of threads for this process                                   12
 GLOBAL| This output is from process                                           0
 GLOBAL| Stack size for threads created by OpenMP (OMP_STACKSIZE)        default
 GLOBAL| CPU model name                 Intel(R) Core(TM) i7-9750H CPU @ 2.60GHz
 GLOBAL| CPUID                                                              1002

 MEMORY| system memory details [Kb]
 MEMORY|                        rank 0           min           max       average
 MEMORY| MemTotal             32580248      32580248      32580248      32580248
 MEMORY| MemFree              28907088      28907088      28907088      28907088
 MEMORY| Buffers                148028        148028        148028        148028
 MEMORY| Cached                2220492       2220492       2220492       2220492
 MEMORY| Slab                   203704        203704        203704        203704
 MEMORY| SReclaimable           102512        102512        102512        102512
 MEMORY| MemLikelyFree        31378120      31378120      31378120      31378120


 *** Fundamental physical constants (SI units) ***

 *** Literature: B. J. Mohr and B. N. Taylor,
 ***             CODATA recommended values of the fundamental physical
 ***             constants: 2006, Web Version 5.1
 ***             http://physics.nist.gov/constants

 Speed of light in vacuum [m/s]                             2.99792458000000E+08
 Magnetic constant or permeability of vacuum [N/A**2]       1.25663706143592E-06
 Electric constant or permittivity of vacuum [F/m]          8.85418781762039E-12
 Planck constant (h) [J*s]                                  6.62606896000000E-34
 Planck constant (h-bar) [J*s]                              1.05457162825177E-34
 Elementary charge [C]                                      1.60217648700000E-19
 Electron mass [kg]                                         9.10938215000000E-31
 Electron g factor [ ]                                     -2.00231930436220E+00
 Proton mass [kg]                                           1.67262163700000E-27
 Fine-structure constant                                    7.29735253760000E-03
 Rydberg constant [1/m]                                     1.09737315685270E+07
 Avogadro constant [1/mol]                                  6.02214179000000E+23
 Boltzmann constant [J/K]                                   1.38065040000000E-23
 Atomic mass unit [kg]                                      1.66053878200000E-27
 Bohr radius [m]                                            5.29177208590000E-11

 *** Conversion factors ***

 [u] -> [a.u.]                                              1.82288848426455E+03
 [Angstrom] -> [Bohr] = [a.u.]                              1.88972613288564E+00
 [a.u.] = [Bohr] -> [Angstrom]                              5.29177208590000E-01
 [a.u.] -> [s]                                              2.41888432650478E-17
 [a.u.] -> [fs]                                             2.41888432650478E-02
 [a.u.] -> [J]                                              4.35974393937059E-18
 [a.u.] -> [N]                                              8.23872205491840E-08
 [a.u.] -> [K]                                              3.15774647902944E+05
 [a.u.] -> [kJ/mol]                                         2.62549961709828E+03
 [a.u.] -> [kcal/mol]                                       6.27509468713739E+02
 [a.u.] -> [Pa]                                             2.94210107994716E+13
 [a.u.] -> [bar]                                            2.94210107994716E+08
 [a.u.] -> [atm]                                            2.90362800883016E+08
 [a.u.] -> [eV]                                             2.72113838565563E+01
 [a.u.] -> [Hz]                                             6.57968392072181E+15
 [a.u.] -> [1/cm] (wave numbers)                            2.19474631370540E+05
 [a.u./Bohr**2] -> [1/cm]                                   5.14048714338585E+03
 

 CELL_TOP| Volume [angstrom^3]:                                        18.144731
 CELL_TOP| Vector a [angstrom     2.950     0.000     0.000   |a| =     2.949546
 CELL_TOP| Vector b [angstrom     1.475     2.554     0.000   |b| =     2.949546
 CELL_TOP| Vector c [angstrom     1.475     0.851     2.408   |c| =     2.949546
 CELL_TOP| Angle (b,c), alpha [degree]:                                60.000000
 CELL_TOP| Angle (a,c), beta  [degree]:                                60.000000
 CELL_TOP| Angle (a,b), gamma [degree]:                                60.000000
 CELL_TOP| Numerically orthorhombic:                                          NO

 GENERATE|  Preliminary Number of Bonds generated:                             0
 GENERATE|  Achieved consistency in connectivity generation.

 CELL| Volume [angstrom^3]:                                            18.144731
 CELL| Vector a [angstrom]:       2.950     0.000     0.000   |a| =     2.949546
 CELL| Vector b [angstrom]:       1.475     2.554     0.000   |b| =     2.949546
 CELL| Vector c [angstrom]:       1.475     0.851     2.408   |c| =     2.949546
 CELL| Angle (b,c), alpha [degree]:                                    60.000000
 CELL| Angle (a,c), beta  [degree]:                                    60.000000
 CELL| Angle (a,b), gamma [degree]:                                    60.000000
 CELL| Numerically orthorhombic:                                              NO

 CELL_REF| Volume [angstrom^3]:                                        18.144731
 CELL_REF| Vector a [angstrom     2.950     0.000     0.000   |a| =     2.949546
 CELL_REF| Vector b [angstrom     1.475     2.554     0.000   |b| =     2.949546
 CELL_REF| Vector c [angstrom     1.475     0.851     2.408   |c| =     2.949546
 CELL_REF| Angle (b,c), alpha [degree]:                                60.000000
 CELL_REF| Angle (a,c), beta  [degree]:                                60.000000
 CELL_REF| Angle (a,b), gamma [degree]:                                60.000000
 CELL_REF| Numerically orthorhombic:                                          NO

 *** WARNING in kpoint_methods.F:256 :: A calculation using real           ***
 *** wavefunctions is requested. We could not determine if the symmetry of ***
 *** the system allows real wavefunctions.                                 ***


 *******************************************************************************
                                    Kpoints
 *******************************************************************************
 BRILLOUIN| K-point scheme                                        Monkhorst-Pack
 BRILLOUIN| K-Point grid                                             7    7    7
 BRILLOUIN| Accuracy in Symmetry determination                      0.100000E-05
 BRILLOUIN| K-Point point group symmetrization                               OFF
 BRILLOUIN| Wavefunction type                                               REAL
 BRILLOUIN| Use full k-point grid     
 BRILLOUIN| List of Kpoints [2 Pi/Bohr]                                      343
 BRILLOUIN| Number           Weight            X              Y              Z
 BRILLOUIN|     1           0.00292       -0.42857       -0.42857       -0.42857
 BRILLOUIN|     2           0.00292       -0.42857       -0.42857       -0.28571
 BRILLOUIN|     3           0.00292       -0.42857       -0.42857       -0.14286
 BRILLOUIN|     4           0.00292       -0.42857       -0.42857        0.00000
 BRILLOUIN|     5           0.00292       -0.42857       -0.42857        0.14286
 BRILLOUIN|     6           0.00292       -0.42857       -0.42857        0.28571
 BRILLOUIN|     7           0.00292       -0.42857       -0.42857        0.42857
 BRILLOUIN|     8           0.00292       -0.42857       -0.28571       -0.42857
 BRILLOUIN|     9           0.00292       -0.42857       -0.28571       -0.28571
 BRILLOUIN|    10           0.00292       -0.42857       -0.28571       -0.14286
 BRILLOUIN|    11           0.00292       -0.42857       -0.28571        0.00000
 BRILLOUIN|    12           0.00292       -0.42857       -0.28571        0.14286
 BRILLOUIN|    13           0.00292       -0.42857       -0.28571        0.28571
 BRILLOUIN|    14           0.00292       -0.42857       -0.28571        0.42857
 BRILLOUIN|    15           0.00292       -0.42857       -0.14286       -0.42857
 BRILLOUIN|    16           0.00292       -0.42857       -0.14286       -0.28571
 BRILLOUIN|    17           0.00292       -0.42857       -0.14286       -0.14286
 BRILLOUIN|    18           0.00292       -0.42857       -0.14286        0.00000
 BRILLOUIN|    19           0.00292       -0.42857       -0.14286        0.14286
 BRILLOUIN|    20           0.00292       -0.42857       -0.14286        0.28571
 BRILLOUIN|    21           0.00292       -0.42857       -0.14286        0.42857
 BRILLOUIN|    22           0.00292       -0.42857        0.00000       -0.42857
 BRILLOUIN|    23           0.00292       -0.42857        0.00000       -0.28571
 BRILLOUIN|    24           0.00292       -0.42857        0.00000       -0.14286
 BRILLOUIN|    25           0.00292       -0.42857        0.00000        0.00000
 BRILLOUIN|    26           0.00292       -0.42857        0.00000        0.14286
 BRILLOUIN|    27           0.00292       -0.42857        0.00000        0.28571
 BRILLOUIN|    28           0.00292       -0.42857        0.00000        0.42857
 BRILLOUIN|    29           0.00292       -0.42857        0.14286       -0.42857
 BRILLOUIN|    30           0.00292       -0.42857        0.14286       -0.28571
 BRILLOUIN|    31           0.00292       -0.42857        0.14286       -0.14286
 BRILLOUIN|    32           0.00292       -0.42857        0.14286        0.00000
 BRILLOUIN|    33           0.00292       -0.42857        0.14286        0.14286
 BRILLOUIN|    34           0.00292       -0.42857        0.14286        0.28571
 BRILLOUIN|    35           0.00292       -0.42857        0.14286        0.42857
 BRILLOUIN|    36           0.00292       -0.42857        0.28571       -0.42857
 BRILLOUIN|    37           0.00292       -0.42857        0.28571       -0.28571
 BRILLOUIN|    38           0.00292       -0.42857        0.28571       -0.14286
 BRILLOUIN|    39           0.00292       -0.42857        0.28571        0.00000
 BRILLOUIN|    40           0.00292       -0.42857        0.28571        0.14286
 BRILLOUIN|    41           0.00292       -0.42857        0.28571        0.28571
 BRILLOUIN|    42           0.00292       -0.42857        0.28571        0.42857
 BRILLOUIN|    43           0.00292       -0.42857        0.42857       -0.42857
 BRILLOUIN|    44           0.00292       -0.42857        0.42857       -0.28571
 BRILLOUIN|    45           0.00292       -0.42857        0.42857       -0.14286
 BRILLOUIN|    46           0.00292       -0.42857        0.42857        0.00000
 BRILLOUIN|    47           0.00292       -0.42857        0.42857        0.14286
 BRILLOUIN|    48           0.00292       -0.42857        0.42857        0.28571
 BRILLOUIN|    49           0.00292       -0.42857        0.42857        0.42857
 BRILLOUIN|    50           0.00292       -0.28571       -0.42857       -0.42857
 BRILLOUIN|    51           0.00292       -0.28571       -0.42857       -0.28571
 BRILLOUIN|    52           0.00292       -0.28571       -0.42857       -0.14286
 BRILLOUIN|    53           0.00292       -0.28571       -0.42857        0.00000
 BRILLOUIN|    54           0.00292       -0.28571       -0.42857        0.14286
 BRILLOUIN|    55           0.00292       -0.28571       -0.42857        0.28571
 BRILLOUIN|    56           0.00292       -0.28571       -0.42857        0.42857
 BRILLOUIN|    57           0.00292       -0.28571       -0.28571       -0.42857
 BRILLOUIN|    58           0.00292       -0.28571       -0.28571       -0.28571
 BRILLOUIN|    59           0.00292       -0.28571       -0.28571       -0.14286
 BRILLOUIN|    60           0.00292       -0.28571       -0.28571        0.00000
 BRILLOUIN|    61           0.00292       -0.28571       -0.28571        0.14286
 BRILLOUIN|    62           0.00292       -0.28571       -0.28571        0.28571
 BRILLOUIN|    63           0.00292       -0.28571       -0.28571        0.42857
 BRILLOUIN|    64           0.00292       -0.28571       -0.14286       -0.42857
 BRILLOUIN|    65           0.00292       -0.28571       -0.14286       -0.28571
 BRILLOUIN|    66           0.00292       -0.28571       -0.14286       -0.14286
 BRILLOUIN|    67           0.00292       -0.28571       -0.14286        0.00000
 BRILLOUIN|    68           0.00292       -0.28571       -0.14286        0.14286
 BRILLOUIN|    69           0.00292       -0.28571       -0.14286        0.28571
 BRILLOUIN|    70           0.00292       -0.28571       -0.14286        0.42857
 BRILLOUIN|    71           0.00292       -0.28571        0.00000       -0.42857
 BRILLOUIN|    72           0.00292       -0.28571        0.00000       -0.28571
 BRILLOUIN|    73           0.00292       -0.28571        0.00000       -0.14286
 BRILLOUIN|    74           0.00292       -0.28571        0.00000        0.00000
 BRILLOUIN|    75           0.00292       -0.28571        0.00000        0.14286
 BRILLOUIN|    76           0.00292       -0.28571        0.00000        0.28571
 BRILLOUIN|    77           0.00292       -0.28571        0.00000        0.42857
 BRILLOUIN|    78           0.00292       -0.28571        0.14286       -0.42857
 BRILLOUIN|    79           0.00292       -0.28571        0.14286       -0.28571
 BRILLOUIN|    80           0.00292       -0.28571        0.14286       -0.14286
 BRILLOUIN|    81           0.00292       -0.28571        0.14286        0.00000
 BRILLOUIN|    82           0.00292       -0.28571        0.14286        0.14286
 BRILLOUIN|    83           0.00292       -0.28571        0.14286        0.28571
 BRILLOUIN|    84           0.00292       -0.28571        0.14286        0.42857
 BRILLOUIN|    85           0.00292       -0.28571        0.28571       -0.42857
 BRILLOUIN|    86           0.00292       -0.28571        0.28571       -0.28571
 BRILLOUIN|    87           0.00292       -0.28571        0.28571       -0.14286
 BRILLOUIN|    88           0.00292       -0.28571        0.28571        0.00000
 BRILLOUIN|    89           0.00292       -0.28571        0.28571        0.14286
 BRILLOUIN|    90           0.00292       -0.28571        0.28571        0.28571
 BRILLOUIN|    91           0.00292       -0.28571        0.28571        0.42857
 BRILLOUIN|    92           0.00292       -0.28571        0.42857       -0.42857
 BRILLOUIN|    93           0.00292       -0.28571        0.42857       -0.28571
 BRILLOUIN|    94           0.00292       -0.28571        0.42857       -0.14286
 BRILLOUIN|    95           0.00292       -0.28571        0.42857        0.00000
 BRILLOUIN|    96           0.00292       -0.28571        0.42857        0.14286
 BRILLOUIN|    97           0.00292       -0.28571        0.42857        0.28571
 BRILLOUIN|    98           0.00292       -0.28571        0.42857        0.42857
 BRILLOUIN|    99           0.00292       -0.14286       -0.42857       -0.42857
 BRILLOUIN|   100           0.00292       -0.14286       -0.42857       -0.28571
 BRILLOUIN|   101           0.00292       -0.14286       -0.42857       -0.14286
 BRILLOUIN|   102           0.00292       -0.14286       -0.42857        0.00000
 BRILLOUIN|   103           0.00292       -0.14286       -0.42857        0.14286
 BRILLOUIN|   104           0.00292       -0.14286       -0.42857        0.28571
 BRILLOUIN|   105           0.00292       -0.14286       -0.42857        0.42857
 BRILLOUIN|   106           0.00292       -0.14286       -0.28571       -0.42857
 BRILLOUIN|   107           0.00292       -0.14286       -0.28571       -0.28571
 BRILLOUIN|   108           0.00292       -0.14286       -0.28571       -0.14286
 BRILLOUIN|   109           0.00292       -0.14286       -0.28571        0.00000
 BRILLOUIN|   110           0.00292       -0.14286       -0.28571        0.14286
 BRILLOUIN|   111           0.00292       -0.14286       -0.28571        0.28571
 BRILLOUIN|   112           0.00292       -0.14286       -0.28571        0.42857
 BRILLOUIN|   113           0.00292       -0.14286       -0.14286       -0.42857
 BRILLOUIN|   114           0.00292       -0.14286       -0.14286       -0.28571
 BRILLOUIN|   115           0.00292       -0.14286       -0.14286       -0.14286
 BRILLOUIN|   116           0.00292       -0.14286       -0.14286        0.00000
 BRILLOUIN|   117           0.00292       -0.14286       -0.14286        0.14286
 BRILLOUIN|   118           0.00292       -0.14286       -0.14286        0.28571
 BRILLOUIN|   119           0.00292       -0.14286       -0.14286        0.42857
 BRILLOUIN|   120           0.00292       -0.14286        0.00000       -0.42857
 BRILLOUIN|   121           0.00292       -0.14286        0.00000       -0.28571
 BRILLOUIN|   122           0.00292       -0.14286        0.00000       -0.14286
 BRILLOUIN|   123           0.00292       -0.14286        0.00000        0.00000
 BRILLOUIN|   124           0.00292       -0.14286        0.00000        0.14286
 BRILLOUIN|   125           0.00292       -0.14286        0.00000        0.28571
 BRILLOUIN|   126           0.00292       -0.14286        0.00000        0.42857
 BRILLOUIN|   127           0.00292       -0.14286        0.14286       -0.42857
 BRILLOUIN|   128           0.00292       -0.14286        0.14286       -0.28571
 BRILLOUIN|   129           0.00292       -0.14286        0.14286       -0.14286
 BRILLOUIN|   130           0.00292       -0.14286        0.14286        0.00000
 BRILLOUIN|   131           0.00292       -0.14286        0.14286        0.14286
 BRILLOUIN|   132           0.00292       -0.14286        0.14286        0.28571
 BRILLOUIN|   133           0.00292       -0.14286        0.14286        0.42857
 BRILLOUIN|   134           0.00292       -0.14286        0.28571       -0.42857
 BRILLOUIN|   135           0.00292       -0.14286        0.28571       -0.28571
 BRILLOUIN|   136           0.00292       -0.14286        0.28571       -0.14286
 BRILLOUIN|   137           0.00292       -0.14286        0.28571        0.00000
 BRILLOUIN|   138           0.00292       -0.14286        0.28571        0.14286
 BRILLOUIN|   139           0.00292       -0.14286        0.28571        0.28571
 BRILLOUIN|   140           0.00292       -0.14286        0.28571        0.42857
 BRILLOUIN|   141           0.00292       -0.14286        0.42857       -0.42857
 BRILLOUIN|   142           0.00292       -0.14286        0.42857       -0.28571
 BRILLOUIN|   143           0.00292       -0.14286        0.42857       -0.14286
 BRILLOUIN|   144           0.00292       -0.14286        0.42857        0.00000
 BRILLOUIN|   145           0.00292       -0.14286        0.42857        0.14286
 BRILLOUIN|   146           0.00292       -0.14286        0.42857        0.28571
 BRILLOUIN|   147           0.00292       -0.14286        0.42857        0.42857
 BRILLOUIN|   148           0.00292        0.00000       -0.42857       -0.42857
 BRILLOUIN|   149           0.00292        0.00000       -0.42857       -0.28571
 BRILLOUIN|   150           0.00292        0.00000       -0.42857       -0.14286
 BRILLOUIN|   151           0.00292        0.00000       -0.42857        0.00000
 BRILLOUIN|   152           0.00292        0.00000       -0.42857        0.14286
 BRILLOUIN|   153           0.00292        0.00000       -0.42857        0.28571
 BRILLOUIN|   154           0.00292        0.00000       -0.42857        0.42857
 BRILLOUIN|   155           0.00292        0.00000       -0.28571       -0.42857
 BRILLOUIN|   156           0.00292        0.00000       -0.28571       -0.28571
 BRILLOUIN|   157           0.00292        0.00000       -0.28571       -0.14286
 BRILLOUIN|   158           0.00292        0.00000       -0.28571        0.00000
 BRILLOUIN|   159           0.00292        0.00000       -0.28571        0.14286
 BRILLOUIN|   160           0.00292        0.00000       -0.28571        0.28571
 BRILLOUIN|   161           0.00292        0.00000       -0.28571        0.42857
 BRILLOUIN|   162           0.00292        0.00000       -0.14286       -0.42857
 BRILLOUIN|   163           0.00292        0.00000       -0.14286       -0.28571
 BRILLOUIN|   164           0.00292        0.00000       -0.14286       -0.14286
 BRILLOUIN|   165           0.00292        0.00000       -0.14286        0.00000
 BRILLOUIN|   166           0.00292        0.00000       -0.14286        0.14286
 BRILLOUIN|   167           0.00292        0.00000       -0.14286        0.28571
 BRILLOUIN|   168           0.00292        0.00000       -0.14286        0.42857
 BRILLOUIN|   169           0.00292        0.00000        0.00000       -0.42857
 BRILLOUIN|   170           0.00292        0.00000        0.00000       -0.28571
 BRILLOUIN|   171           0.00292        0.00000        0.00000       -0.14286
 BRILLOUIN|   172           0.00292        0.00000        0.00000        0.00000
 BRILLOUIN|   173           0.00292        0.00000        0.00000        0.14286
 BRILLOUIN|   174           0.00292        0.00000        0.00000        0.28571
 BRILLOUIN|   175           0.00292        0.00000        0.00000        0.42857
 BRILLOUIN|   176           0.00292        0.00000        0.14286       -0.42857
 BRILLOUIN|   177           0.00292        0.00000        0.14286       -0.28571
 BRILLOUIN|   178           0.00292        0.00000        0.14286       -0.14286
 BRILLOUIN|   179           0.00292        0.00000        0.14286        0.00000
 BRILLOUIN|   180           0.00292        0.00000        0.14286        0.14286
 BRILLOUIN|   181           0.00292        0.00000        0.14286        0.28571
 BRILLOUIN|   182           0.00292        0.00000        0.14286        0.42857
 BRILLOUIN|   183           0.00292        0.00000        0.28571       -0.42857
 BRILLOUIN|   184           0.00292        0.00000        0.28571       -0.28571
 BRILLOUIN|   185           0.00292        0.00000        0.28571       -0.14286
 BRILLOUIN|   186           0.00292        0.00000        0.28571        0.00000
 BRILLOUIN|   187           0.00292        0.00000        0.28571        0.14286
 BRILLOUIN|   188           0.00292        0.00000        0.28571        0.28571
 BRILLOUIN|   189           0.00292        0.00000        0.28571        0.42857
 BRILLOUIN|   190           0.00292        0.00000        0.42857       -0.42857
 BRILLOUIN|   191           0.00292        0.00000        0.42857       -0.28571
 BRILLOUIN|   192           0.00292        0.00000        0.42857       -0.14286
 BRILLOUIN|   193           0.00292        0.00000        0.42857        0.00000
 BRILLOUIN|   194           0.00292        0.00000        0.42857        0.14286
 BRILLOUIN|   195           0.00292        0.00000        0.42857        0.28571
 BRILLOUIN|   196           0.00292        0.00000        0.42857        0.42857
 BRILLOUIN|   197           0.00292        0.14286       -0.42857       -0.42857
 BRILLOUIN|   198           0.00292        0.14286       -0.42857       -0.28571
 BRILLOUIN|   199           0.00292        0.14286       -0.42857       -0.14286
 BRILLOUIN|   200           0.00292        0.14286       -0.42857        0.00000
 BRILLOUIN|   201           0.00292        0.14286       -0.42857        0.14286
 BRILLOUIN|   202           0.00292        0.14286       -0.42857        0.28571
 BRILLOUIN|   203           0.00292        0.14286       -0.42857        0.42857
 BRILLOUIN|   204           0.00292        0.14286       -0.28571       -0.42857
 BRILLOUIN|   205           0.00292        0.14286       -0.28571       -0.28571
 BRILLOUIN|   206           0.00292        0.14286       -0.28571       -0.14286
 BRILLOUIN|   207           0.00292        0.14286       -0.28571        0.00000
 BRILLOUIN|   208           0.00292        0.14286       -0.28571        0.14286
 BRILLOUIN|   209           0.00292        0.14286       -0.28571        0.28571
 BRILLOUIN|   210           0.00292        0.14286       -0.28571        0.42857
 BRILLOUIN|   211           0.00292        0.14286       -0.14286       -0.42857
 BRILLOUIN|   212           0.00292        0.14286       -0.14286       -0.28571
 BRILLOUIN|   213           0.00292        0.14286       -0.14286       -0.14286
 BRILLOUIN|   214           0.00292        0.14286       -0.14286        0.00000
 BRILLOUIN|   215           0.00292        0.14286       -0.14286        0.14286
 BRILLOUIN|   216           0.00292        0.14286       -0.14286        0.28571
 BRILLOUIN|   217           0.00292        0.14286       -0.14286        0.42857
 BRILLOUIN|   218           0.00292        0.14286        0.00000       -0.42857
 BRILLOUIN|   219           0.00292        0.14286        0.00000       -0.28571
 BRILLOUIN|   220           0.00292        0.14286        0.00000       -0.14286
 BRILLOUIN|   221           0.00292        0.14286        0.00000        0.00000
 BRILLOUIN|   222           0.00292        0.14286        0.00000        0.14286
 BRILLOUIN|   223           0.00292        0.14286        0.00000        0.28571
 BRILLOUIN|   224           0.00292        0.14286        0.00000        0.42857
 BRILLOUIN|   225           0.00292        0.14286        0.14286       -0.42857
 BRILLOUIN|   226           0.00292        0.14286        0.14286       -0.28571
 BRILLOUIN|   227           0.00292        0.14286        0.14286       -0.14286
 BRILLOUIN|   228           0.00292        0.14286        0.14286        0.00000
 BRILLOUIN|   229           0.00292        0.14286        0.14286        0.14286
 BRILLOUIN|   230           0.00292        0.14286        0.14286        0.28571
 BRILLOUIN|   231           0.00292        0.14286        0.14286        0.42857
 BRILLOUIN|   232           0.00292        0.14286        0.28571       -0.42857
 BRILLOUIN|   233           0.00292        0.14286        0.28571       -0.28571
 BRILLOUIN|   234           0.00292        0.14286        0.28571       -0.14286
 BRILLOUIN|   235           0.00292        0.14286        0.28571        0.00000
 BRILLOUIN|   236           0.00292        0.14286        0.28571        0.14286
 BRILLOUIN|   237           0.00292        0.14286        0.28571        0.28571
 BRILLOUIN|   238           0.00292        0.14286        0.28571        0.42857
 BRILLOUIN|   239           0.00292        0.14286        0.42857       -0.42857
 BRILLOUIN|   240           0.00292        0.14286        0.42857       -0.28571
 BRILLOUIN|   241           0.00292        0.14286        0.42857       -0.14286
 BRILLOUIN|   242           0.00292        0.14286        0.42857        0.00000
 BRILLOUIN|   243           0.00292        0.14286        0.42857        0.14286
 BRILLOUIN|   244           0.00292        0.14286        0.42857        0.28571
 BRILLOUIN|   245           0.00292        0.14286        0.42857        0.42857
 BRILLOUIN|   246           0.00292        0.28571       -0.42857       -0.42857
 BRILLOUIN|   247           0.00292        0.28571       -0.42857       -0.28571
 BRILLOUIN|   248           0.00292        0.28571       -0.42857       -0.14286
 BRILLOUIN|   249           0.00292        0.28571       -0.42857        0.00000
 BRILLOUIN|   250           0.00292        0.28571       -0.42857        0.14286
 BRILLOUIN|   251           0.00292        0.28571       -0.42857        0.28571
 BRILLOUIN|   252           0.00292        0.28571       -0.42857        0.42857
 BRILLOUIN|   253           0.00292        0.28571       -0.28571       -0.42857
 BRILLOUIN|   254           0.00292        0.28571       -0.28571       -0.28571
 BRILLOUIN|   255           0.00292        0.28571       -0.28571       -0.14286
 BRILLOUIN|   256           0.00292        0.28571       -0.28571        0.00000
 BRILLOUIN|   257           0.00292        0.28571       -0.28571        0.14286
 BRILLOUIN|   258           0.00292        0.28571       -0.28571        0.28571
 BRILLOUIN|   259           0.00292        0.28571       -0.28571        0.42857
 BRILLOUIN|   260           0.00292        0.28571       -0.14286       -0.42857
 BRILLOUIN|   261           0.00292        0.28571       -0.14286       -0.28571
 BRILLOUIN|   262           0.00292        0.28571       -0.14286       -0.14286
 BRILLOUIN|   263           0.00292        0.28571       -0.14286        0.00000
 BRILLOUIN|   264           0.00292        0.28571       -0.14286        0.14286
 BRILLOUIN|   265           0.00292        0.28571       -0.14286        0.28571
 BRILLOUIN|   266           0.00292        0.28571       -0.14286        0.42857
 BRILLOUIN|   267           0.00292        0.28571        0.00000       -0.42857
 BRILLOUIN|   268           0.00292        0.28571        0.00000       -0.28571
 BRILLOUIN|   269           0.00292        0.28571        0.00000       -0.14286
 BRILLOUIN|   270           0.00292        0.28571        0.00000        0.00000
 BRILLOUIN|   271           0.00292        0.28571        0.00000        0.14286
 BRILLOUIN|   272           0.00292        0.28571        0.00000        0.28571
 BRILLOUIN|   273           0.00292        0.28571        0.00000        0.42857
 BRILLOUIN|   274           0.00292        0.28571        0.14286       -0.42857
 BRILLOUIN|   275           0.00292        0.28571        0.14286       -0.28571
 BRILLOUIN|   276           0.00292        0.28571        0.14286       -0.14286
 BRILLOUIN|   277           0.00292        0.28571        0.14286        0.00000
 BRILLOUIN|   278           0.00292        0.28571        0.14286        0.14286
 BRILLOUIN|   279           0.00292        0.28571        0.14286        0.28571
 BRILLOUIN|   280           0.00292        0.28571        0.14286        0.42857
 BRILLOUIN|   281           0.00292        0.28571        0.28571       -0.42857
 BRILLOUIN|   282           0.00292        0.28571        0.28571       -0.28571
 BRILLOUIN|   283           0.00292        0.28571        0.28571       -0.14286
 BRILLOUIN|   284           0.00292        0.28571        0.28571        0.00000
 BRILLOUIN|   285           0.00292        0.28571        0.28571        0.14286
 BRILLOUIN|   286           0.00292        0.28571        0.28571        0.28571
 BRILLOUIN|   287           0.00292        0.28571        0.28571        0.42857
 BRILLOUIN|   288           0.00292        0.28571        0.42857       -0.42857
 BRILLOUIN|   289           0.00292        0.28571        0.42857       -0.28571
 BRILLOUIN|   290           0.00292        0.28571        0.42857       -0.14286
 BRILLOUIN|   291           0.00292        0.28571        0.42857        0.00000
 BRILLOUIN|   292           0.00292        0.28571        0.42857        0.14286
 BRILLOUIN|   293           0.00292        0.28571        0.42857        0.28571
 BRILLOUIN|   294           0.00292        0.28571        0.42857        0.42857
 BRILLOUIN|   295           0.00292        0.42857       -0.42857       -0.42857
 BRILLOUIN|   296           0.00292        0.42857       -0.42857       -0.28571
 BRILLOUIN|   297           0.00292        0.42857       -0.42857       -0.14286
 BRILLOUIN|   298           0.00292        0.42857       -0.42857        0.00000
 BRILLOUIN|   299           0.00292        0.42857       -0.42857        0.14286
 BRILLOUIN|   300           0.00292        0.42857       -0.42857        0.28571
 BRILLOUIN|   301           0.00292        0.42857       -0.42857        0.42857
 BRILLOUIN|   302           0.00292        0.42857       -0.28571       -0.42857
 BRILLOUIN|   303           0.00292        0.42857       -0.28571       -0.28571
 BRILLOUIN|   304           0.00292        0.42857       -0.28571       -0.14286
 BRILLOUIN|   305           0.00292        0.42857       -0.28571        0.00000
 BRILLOUIN|   306           0.00292        0.42857       -0.28571        0.14286
 BRILLOUIN|   307           0.00292        0.42857       -0.28571        0.28571
 BRILLOUIN|   308           0.00292        0.42857       -0.28571        0.42857
 BRILLOUIN|   309           0.00292        0.42857       -0.14286       -0.42857
 BRILLOUIN|   310           0.00292        0.42857       -0.14286       -0.28571
 BRILLOUIN|   311           0.00292        0.42857       -0.14286       -0.14286
 BRILLOUIN|   312           0.00292        0.42857       -0.14286        0.00000
 BRILLOUIN|   313           0.00292        0.42857       -0.14286        0.14286
 BRILLOUIN|   314           0.00292        0.42857       -0.14286        0.28571
 BRILLOUIN|   315           0.00292        0.42857       -0.14286        0.42857
 BRILLOUIN|   316           0.00292        0.42857        0.00000       -0.42857
 BRILLOUIN|   317           0.00292        0.42857        0.00000       -0.28571
 BRILLOUIN|   318           0.00292        0.42857        0.00000       -0.14286
 BRILLOUIN|   319           0.00292        0.42857        0.00000        0.00000
 BRILLOUIN|   320           0.00292        0.42857        0.00000        0.14286
 BRILLOUIN|   321           0.00292        0.42857        0.00000        0.28571
 BRILLOUIN|   322           0.00292        0.42857        0.00000        0.42857
 BRILLOUIN|   323           0.00292        0.42857        0.14286       -0.42857
 BRILLOUIN|   324           0.00292        0.42857        0.14286       -0.28571
 BRILLOUIN|   325           0.00292        0.42857        0.14286       -0.14286
 BRILLOUIN|   326           0.00292        0.42857        0.14286        0.00000
 BRILLOUIN|   327           0.00292        0.42857        0.14286        0.14286
 BRILLOUIN|   328           0.00292        0.42857        0.14286        0.28571
 BRILLOUIN|   329           0.00292        0.42857        0.14286        0.42857
 BRILLOUIN|   330           0.00292        0.42857        0.28571       -0.42857
 BRILLOUIN|   331           0.00292        0.42857        0.28571       -0.28571
 BRILLOUIN|   332           0.00292        0.42857        0.28571       -0.14286
 BRILLOUIN|   333           0.00292        0.42857        0.28571        0.00000
 BRILLOUIN|   334           0.00292        0.42857        0.28571        0.14286
 BRILLOUIN|   335           0.00292        0.42857        0.28571        0.28571
 BRILLOUIN|   336           0.00292        0.42857        0.28571        0.42857
 BRILLOUIN|   337           0.00292        0.42857        0.42857       -0.42857
 BRILLOUIN|   338           0.00292        0.42857        0.42857       -0.28571
 BRILLOUIN|   339           0.00292        0.42857        0.42857       -0.14286
 BRILLOUIN|   340           0.00292        0.42857        0.42857        0.00000
 BRILLOUIN|   341           0.00292        0.42857        0.42857        0.14286
 BRILLOUIN|   342           0.00292        0.42857        0.42857        0.28571
 BRILLOUIN|   343           0.00292        0.42857        0.42857        0.42857
 *******************************************************************************

 *******************************************************************************
 *******************************************************************************
 **                                                                           **
 **     #####                         ##              ##                      **
 **    ##   ##            ##          ##              ##                      **
 **   ##     ##                       ##            ######                    **
 **   ##     ##  ##   ##  ##   #####  ##  ##   ####   ##    #####    #####    **
 **   ##     ##  ##   ##  ##  ##      ## ##   ##      ##   ##   ##  ##   ##   **
 **   ##  ## ##  ##   ##  ##  ##      ####     ###    ##   ######   ######    **
 **    ##  ###   ##   ##  ##  ##      ## ##      ##   ##   ##       ##        **
 **     #######   #####   ##   #####  ##  ##  ####    ##    #####   ##        **
 **           ##                                                    ##        **
 **                                                                           **
 **                                                ... make the atoms dance   **
 **                                                                           **
 **            Copyright (C) by CP2K developers group (2000-2021)             **
 **                      J. Chem. Phys. 152, 194103 (2020)                    **
 **                                                                           **
 *******************************************************************************

 *** WARNING in qs_environment.F:1472 :: Kpoints: Different number of MOs   ***
 *** requested. The number of beta MOs will be set to the number alpha MOs. ***


 DFT| Spin unrestricted (spin-polarized) Kohn-Sham calculation               UKS
 DFT| Multiplicity                                                             2
 DFT| Number of spin states                                                    2
 DFT| Charge                                                                   0
 DFT| Self-interaction correction (SIC)                                       NO
 DFT| Cutoffs: density                                              1.000000E-10
 DFT|          gradient                                             1.000000E-10
 DFT|          tau                                                  1.000000E-10
 DFT|          cutoff_smoothing_range                               0.000000E+00
 DFT| XC density smoothing                                                  NONE
 DFT| XC derivatives                                                          PW
 FUNCTIONAL| ROUTINE=NEW
 FUNCTIONAL| PADE:
 FUNCTIONAL| S. Goedecker, M. Teter and J. Hutter, Phys. Rev. B 54, 1703 (1996) 

 QS| Method:                                                                 GPW
 QS| Density plane wave grid type                        NON-SPHERICAL FULLSPACE
 QS| Number of grid levels:                                                    4
 QS| Density cutoff [a.u.]:                                                170.0
 QS| Multi grid cutoff [a.u.]: 1) grid level                               170.0
 QS|                           2) grid level                                56.7
 QS|                           3) grid level                                18.9
 QS|                           4) grid level                                 6.3
 QS| Grid level progression factor:                                          3.0
 QS| Relative density cutoff [a.u.]:                                        20.0
 QS| Interaction thresholds: eps_pgf_orb:                                1.0E-05
 QS|                         eps_filter_matrix:                          0.0E+00
 QS|                         eps_core_charge:                            1.0E-12
 QS|                         eps_rho_gspace:                             1.0E-10
 QS|                         eps_rho_rspace:                             1.0E-10
 QS|                         eps_gvg_rspace:                             1.0E-05
 QS|                         eps_ppl:                                    1.0E-02
 QS|                         eps_ppnl:                                   1.0E-07


 ATOMIC KIND INFORMATION

  1. Atomic kind: Au                                    Number of atoms:       1

     Orbital Basis Set                                                    TZ-GTH

       Number of orbital shell sets:                                           1
       Number of orbital shells:                                               9
       Number of primitive Cartesian functions:                                6
       Number of Cartesian basis functions:                                   30
       Number of spherical basis functions:                                   27
       Norm type:                                                              2

       Normalised Cartesian orbitals:

                        Set   Shell   Orbital            Exponent    Coefficient

                          1       1    1s                3.333000      -0.080134
                                                         1.582000      -0.011241
                                                         0.751400       0.299230
                                                         0.356800       0.050051
                                                         0.169400      -0.217386
                                                         0.080400      -0.024288

                          1       2    2s                3.333000      -0.049826
                                                         1.582000       0.059507
                                                         0.751400       0.004056
                                                         0.356800      -0.118323
                                                         0.169400       0.210429
                                                         0.080400       0.019545

                          1       3    3s                3.333000      -0.056294
                                                         1.582000       0.202005
                                                         0.751400      -0.364740
                                                         0.356800       0.208251
                                                         0.169400      -0.050262
                                                         0.080400       0.112031

                          1       4    2px               3.333000       0.185749
                                                         1.582000      -0.156946
                                                         0.751400       0.001213
                                                         0.356800      -0.083225
                                                         0.169400       0.090377
                                                         0.080400       0.037129
                          1       4    2py               3.333000       0.185749
                                                         1.582000      -0.156946
                                                         0.751400       0.001213
                                                         0.356800      -0.083225
                                                         0.169400       0.090377
                                                         0.080400       0.037129
                          1       4    2pz               3.333000       0.185749
                                                         1.582000      -0.156946
                                                         0.751400       0.001213
                                                         0.356800      -0.083225
                                                         0.169400       0.090377
                                                         0.080400       0.037129

                          1       5    3px               3.333000       0.215585
                                                         1.582000      -0.040752
                                                         0.751400      -0.221265
                                                         0.356800      -0.108388
                                                         0.169400       0.222686
                                                         0.080400      -0.009382
                          1       5    3py               3.333000       0.215585
                                                         1.582000      -0.040752
                                                         0.751400      -0.221265
                                                         0.356800      -0.108388
                                                         0.169400       0.222686
                                                         0.080400      -0.009382
                          1       5    3pz               3.333000       0.215585
                                                         1.582000      -0.040752
                                                         0.751400      -0.221265
                                                         0.356800      -0.108388
                                                         0.169400       0.222686
                                                         0.080400      -0.009382

                          1       6    4px               3.333000      -0.932726
                                                         1.582000       1.865954
                                                         0.751400      -1.908027
                                                         0.356800       0.834389
                                                         0.169400      -0.133385
                                                         0.080400       0.057497
                          1       6    4py               3.333000      -0.932726
                                                         1.582000       1.865954
                                                         0.751400      -1.908027
                                                         0.356800       0.834389
                                                         0.169400      -0.133385
                                                         0.080400       0.057497
                          1       6    4pz               3.333000      -0.932726
                                                         1.582000       1.865954
                                                         0.751400      -1.908027
                                                         0.356800       0.834389
                                                         0.169400      -0.133385
                                                         0.080400       0.057497

                          1       7    3dx2              3.333000      -0.156768
                                                         1.582000       1.230613
                                                         0.751400       0.395441
                                                         0.356800       0.076280
                                                         0.169400       0.013062
                                                         0.080400       0.000387
                          1       7    3dxy              3.333000      -0.271530
                                                         1.582000       2.131484
                                                         0.751400       0.684924
                                                         0.356800       0.132122
                                                         0.169400       0.022624
                                                         0.080400       0.000671
                          1       7    3dxz              3.333000      -0.271530
                                                         1.582000       2.131484
                                                         0.751400       0.684924
                                                         0.356800       0.132122
                                                         0.169400       0.022624
                                                         0.080400       0.000671
                          1       7    3dy2              3.333000      -0.156768
                                                         1.582000       1.230613
                                                         0.751400       0.395441
                                                         0.356800       0.076280
                                                         0.169400       0.013062
                                                         0.080400       0.000387
                          1       7    3dyz              3.333000      -0.271530
                                                         1.582000       2.131484
                                                         0.751400       0.684924
                                                         0.356800       0.132122
                                                         0.169400       0.022624
                                                         0.080400       0.000671
                          1       7    3dz2              3.333000      -0.156768
                                                         1.582000       1.230613
                                                         0.751400       0.395441
                                                         0.356800       0.076280
                                                         0.169400       0.013062
                                                         0.080400       0.000387

                          1       8    4dx2              3.333000      -0.043443
                                                         1.582000       1.221654
                                                         0.751400       0.460179
                                                         0.356800       0.089651
                                                         0.169400      -0.003767
                                                         0.080400      -0.009398
                          1       8    4dxy              3.333000      -0.075245
                                                         1.582000       2.115966
                                                         0.751400       0.797054
                                                         0.356800       0.155280
                                                         0.169400      -0.006525
                                                         0.080400      -0.016278
                          1       8    4dxz              3.333000      -0.075245
                                                         1.582000       2.115966
                                                         0.751400       0.797054
                                                         0.356800       0.155280
                                                         0.169400      -0.006525
                                                         0.080400      -0.016278
                          1       8    4dy2              3.333000      -0.043443
                                                         1.582000       1.221654
                                                         0.751400       0.460179
                                                         0.356800       0.089651
                                                         0.169400      -0.003767
                                                         0.080400      -0.009398
                          1       8    4dyz              3.333000      -0.075245
                                                         1.582000       2.115966
                                                         0.751400       0.797054
                                                         0.356800       0.155280
                                                         0.169400      -0.006525
                                                         0.080400      -0.016278
                          1       8    4dz2              3.333000      -0.043443
                                                         1.582000       1.221654
                                                         0.751400       0.460179
                                                         0.356800       0.089651
                                                         0.169400      -0.003767
                                                         0.080400      -0.009398

                          1       9    5dx2              3.333000      -0.247109
                                                         1.582000       1.222159
                                                         0.751400       0.269101
                                                         0.356800       0.056615
                                                         0.169400       0.049918
                                                         0.080400      -0.008724
                          1       9    5dxy              3.333000      -0.428005
                                                         1.582000       2.116842
                                                         0.751400       0.466096
                                                         0.356800       0.098060
                                                         0.169400       0.086461
                                                         0.080400      -0.015111
                          1       9    5dxz              3.333000      -0.428005
                                                         1.582000       2.116842
                                                         0.751400       0.466096
                                                         0.356800       0.098060
                                                         0.169400       0.086461
                                                         0.080400      -0.015111
                          1       9    5dy2              3.333000      -0.247109
                                                         1.582000       1.222159
                                                         0.751400       0.269101
                                                         0.356800       0.056615
                                                         0.169400       0.049918
                                                         0.080400      -0.008724
                          1       9    5dyz              3.333000      -0.428005
                                                         1.582000       2.116842
                                                         0.751400       0.466096
                                                         0.356800       0.098060
                                                         0.169400       0.086461
                                                         0.080400      -0.015111
                          1       9    5dz2              3.333000      -0.247109
                                                         1.582000       1.222159
                                                         0.751400       0.269101
                                                         0.356800       0.056615
                                                         0.169400       0.049918
                                                         0.080400      -0.008724

       Atomic covalent radius [Angstrom]:                                  1.340

       Atomic van der Waals radius [Angstrom]:                             1.660

     GTH Potential information for                                  GTH-PADE-q11

       Description:                       Goedecker-Teter-Hutter pseudopotential
                                           Goedecker et al., PRB 54, 1703 (1996)
                                          Hartwigsen et al., PRB 58, 3641 (1998)
                                                      Krack, TCA 114, 145 (2005)

       Gaussian exponent of the core charge distribution:               1.436369
       Electronic configuration (s p d ...):                           1   0  10

       Parameters of the local part of the GTH pseudopotential:

                          rloc        C1          C2          C3          C4
                        0.590000   11.604428

       Parameters of the non-local part of the GTH pseudopotential:

                   l      r(l)      h(i,j,l)

                   0    0.521180    2.538614   -1.046137
                                   -1.046137    2.701113
                   1    0.630613    0.394853   -0.869592
                                   -0.869592    2.057831
                   2    0.440706   -4.719070    0.727771
                                    0.727771   -1.650429


 MOLECULE KIND INFORMATION


 All atoms are their own molecule, skipping detailed information


 TOTAL NUMBERS AND MAXIMUM NUMBERS

  Total number of            - Atomic kinds:                                   1
                             - Atoms:                                          1
                             - Shell sets:                                     1
                             - Shells:                                         9
                             - Primitive Cartesian functions:                  6
                             - Cartesian basis functions:                     30
                             - Spherical basis functions:                     27

  Maximum angular momentum of- Orbital basis functions:                        2
                             - Local part of the GTH pseudopotential:          0
                             - Non-local part of the GTH pseudopotential:      4


 MODULE QUICKSTEP:  ATOMIC COORDINATES IN angstrom

 Atom  Kind  Element       X           Y           Z          Z(eff)       Mass
    1   1 Au  79       0.000000    0.000000    0.000000      11.0000    196.9666




 SCF PARAMETERS         Density guess:                                    ATOMIC
                        --------------------------------------------------------
                        max_scf:                                              50
                        max_scf_history:                                       0
                        max_diis:                                              4
                        --------------------------------------------------------
                        eps_scf:                                        1.00E-05
                        eps_scf_history:                                0.00E+00
                        eps_diis:                                       1.00E-01
                        eps_eigval:                                     1.00E-05
                        --------------------------------------------------------
                        level_shift [a.u.]:                                 0.00
                        added MOs                                        10   10
                        --------------------------------------------------------
                        Mixing method:                            BROYDEN_MIXING
                                                charge density mixing in g-space
                        --------------------------------------------------------
                        Smear method:                                FERMI_DIRAC
                        Electronic temperature [K]:                        300.0
                        Electronic temperature [a.u.]:                  9.50E-04
                        Accuracy threshold:                             1.00E-10
                        --------------------------------------------------------
                        Outer loop SCF in use 
                        No variables optimised in outer loop
                        eps_scf                                         1.00E-05
                        max_scf                                               50
                        No outer loop optimization
                        step_size                                       5.00E-01

 PW_GRID| Information for grid number                                          1
 PW_GRID| Cutoff [a.u.]                                                    170.0
 PW_GRID| spherical cutoff:                                                   NO
 PW_GRID|   Bounds   1            -18      17                Points:          36
 PW_GRID|   Bounds   2            -18      17                Points:          36
 PW_GRID|   Bounds   3            -18      17                Points:          36
 PW_GRID| Volume element (a.u.^3)  0.2624E-02     Volume (a.u.^3)       122.4467
 PW_GRID| Grid span                                                    FULLSPACE

 PW_GRID| Information for grid number                                          2
 PW_GRID| Number of the reference grid                                         1
 PW_GRID| Cutoff [a.u.]                                                     56.7
 PW_GRID| spherical cutoff:                                                   NO
 PW_GRID|   Bounds   1            -10       9                Points:          20
 PW_GRID|   Bounds   2            -10       9                Points:          20
 PW_GRID|   Bounds   3            -10       9                Points:          20
 PW_GRID| Volume element (a.u.^3)  0.1531E-01     Volume (a.u.^3)       122.4467
 PW_GRID| Grid span                                                    FULLSPACE

 PW_GRID| Information for grid number                                          3
 PW_GRID| Number of the reference grid                                         1
 PW_GRID| Cutoff [a.u.]                                                     18.9
 PW_GRID| spherical cutoff:                                                   NO
 PW_GRID|   Bounds   1             -6       5                Points:          12
 PW_GRID|   Bounds   2             -6       5                Points:          12
 PW_GRID|   Bounds   3             -6       5                Points:          12
 PW_GRID| Volume element (a.u.^3)  0.7086E-01     Volume (a.u.^3)       122.4467
 PW_GRID| Grid span                                                    FULLSPACE

 PW_GRID| Information for grid number                                          4
 PW_GRID| Number of the reference grid                                         1
 PW_GRID| Cutoff [a.u.]                                                      6.3
 PW_GRID| spherical cutoff:                                                   NO
 PW_GRID|   Bounds   1             -4       3                Points:           8
 PW_GRID|   Bounds   2             -4       3                Points:           8
 PW_GRID|   Bounds   3             -4       3                Points:           8
 PW_GRID| Volume element (a.u.^3)  0.2392         Volume (a.u.^3)       122.4467
 PW_GRID| Grid span                                                    FULLSPACE

 POISSON| Solver                                                        PERIODIC
 POISSON| Periodicity                                                        XYZ

 RS_GRID| Information for grid number                                          1
 RS_GRID|   Bounds   1            -18      17                Points:          36
 RS_GRID|   Bounds   2            -18      17                Points:          36
 RS_GRID|   Bounds   3            -18      17                Points:          36

 RS_GRID| Information for grid number                                          2
 RS_GRID|   Bounds   1            -10       9                Points:          20
 RS_GRID|   Bounds   2            -10       9                Points:          20
 RS_GRID|   Bounds   3            -10       9                Points:          20

 RS_GRID| Information for grid number                                          3
 RS_GRID|   Bounds   1             -6       5                Points:          12
 RS_GRID|   Bounds   2             -6       5                Points:          12
 RS_GRID|   Bounds   3             -6       5                Points:          12

 RS_GRID| Information for grid number                                          4
 RS_GRID|   Bounds   1             -4       3                Points:           8
 RS_GRID|   Bounds   2             -4       3                Points:           8
 RS_GRID|   Bounds   3             -4       3                Points:           8

 CELL_OPT| Pressure tolerance [bar]:                                       100.0
 CELL_OPT| Keep angles between the cell vectors:                              NO
 CELL_OPT| Keep cell symmetry:                                                NO
 CELL_OPT| Constraint:                                                      NONE

 *******************************************************************************
 ***                     STARTING   CELL   OPTIMIZATION                      ***
 ***                                 L-BFGS                                  ***
 *******************************************************************************

 --------------------------
 OPTIMIZATION STEP:      1
 --------------------------

 CELL| Volume [angstrom^3]:                                            18.144731
 CELL| Vector a [angstrom]:       2.950     0.000     0.000   |a| =     2.949546
 CELL| Vector b [angstrom]:       1.475     2.554     0.000   |b| =     2.949546
 CELL| Vector c [angstrom]:       1.475     0.851     2.408   |c| =     2.949546
 CELL| Angle (b,c), alpha [degree]:                                    60.000000
 CELL| Angle (a,c), beta  [degree]:                                    60.000000
 CELL| Angle (a,b), gamma [degree]:                                    60.000000
 CELL| Numerically orthorhombic:                                              NO

 -------------------------------------------------------------------------------
 ----                             MULTIGRID INFO                            ----
 -------------------------------------------------------------------------------
 count for grid        1:           3924          cutoff [a.u.]          170.00
 count for grid        2:           3600          cutoff [a.u.]           56.67
 count for grid        3:           3312          cutoff [a.u.]           18.89
 count for grid        4:           1044          cutoff [a.u.]            6.30
 total gridlevel count  :          11880

 PW_GRID| Information for grid number                                          5
 PW_GRID| Cutoff [a.u.]                                                    170.0
 PW_GRID| spherical cutoff:                                                   NO
 PW_GRID|   Bounds   1            -18      17                Points:          36
 PW_GRID|   Bounds   2            -18      17                Points:          36
 PW_GRID|   Bounds   3            -18      17                Points:          36
 PW_GRID| Volume element (a.u.^3)  0.2624E-02     Volume (a.u.^3)       122.4467
 PW_GRID| Grid span                                                    FULLSPACE

 PW_GRID| Information for grid number                                          6
 PW_GRID| Number of the reference grid                                         5
 PW_GRID| Cutoff [a.u.]                                                     56.7
 PW_GRID| spherical cutoff:                                                   NO
 PW_GRID|   Bounds   1            -10       9                Points:          20
 PW_GRID|   Bounds   2            -10       9                Points:          20
 PW_GRID|   Bounds   3            -10       9                Points:          20
 PW_GRID| Volume element (a.u.^3)  0.1531E-01     Volume (a.u.^3)       122.4467
 PW_GRID| Grid span                                                    FULLSPACE

 PW_GRID| Information for grid number                                          7
 PW_GRID| Number of the reference grid                                         5
 PW_GRID| Cutoff [a.u.]                                                     18.9
 PW_GRID| spherical cutoff:                                                   NO
 PW_GRID|   Bounds   1             -6       5                Points:          12
 PW_GRID|   Bounds   2             -6       5                Points:          12
 PW_GRID|   Bounds   3             -6       5                Points:          12
 PW_GRID| Volume element (a.u.^3)  0.7086E-01     Volume (a.u.^3)       122.4467
 PW_GRID| Grid span                                                    FULLSPACE

 PW_GRID| Information for grid number                                          8
 PW_GRID| Number of the reference grid                                         5
 PW_GRID| Cutoff [a.u.]                                                      6.3
 PW_GRID| spherical cutoff:                                                   NO
 PW_GRID|   Bounds   1             -4       3                Points:           8
 PW_GRID|   Bounds   2             -4       3                Points:           8
 PW_GRID|   Bounds   3             -4       3                Points:           8
 PW_GRID| Volume element (a.u.^3)  0.2392         Volume (a.u.^3)       122.4467
 PW_GRID| Grid span                                                    FULLSPACE

 POISSON| Solver                                                        PERIODIC
 POISSON| Periodicity                                                        XYZ

 RS_GRID| Information for grid number                                          5
 RS_GRID|   Bounds   1            -18      17                Points:          36
 RS_GRID|   Bounds   2            -18      17                Points:          36
 RS_GRID|   Bounds   3            -18      17                Points:          36

 RS_GRID| Information for grid number                                          6
 RS_GRID|   Bounds   1            -10       9                Points:          20
 RS_GRID|   Bounds   2            -10       9                Points:          20
 RS_GRID|   Bounds   3            -10       9                Points:          20

 RS_GRID| Information for grid number                                          7
 RS_GRID|   Bounds   1             -6       5                Points:          12
 RS_GRID|   Bounds   2             -6       5                Points:          12
 RS_GRID|   Bounds   3             -6       5                Points:          12

 RS_GRID| Information for grid number                                          8
 RS_GRID|   Bounds   1             -4       3                Points:           8
 RS_GRID|   Bounds   2             -4       3                Points:           8
 RS_GRID|   Bounds   3             -4       3                Points:           8

 Spin 1

 Number of electrons:                                                          6
 Number of occupied orbitals:                                                  6
 Number of molecular orbitals:                                                16

 Spin 2

 Number of electrons:                                                          5
 Number of occupied orbitals:                                                  5
 Number of molecular orbitals:                                                16

 Number of orbital functions:                                                 27
 Number of independent orbital functions:                                     27

 Extrapolation method: initial_guess

 Atomic guess: The first density matrix is obtained in terms of atomic orbitals
               and electronic configurations assigned to each atomic kind

 Guess for atomic kind: Au

 Electronic structure
    Total number of core electrons                                         68.00
    Total number of valence electrons                                      11.00
    Total number of electrons                                              79.00
    Multiplicity                                                   not specified
    S   [  2.00  2.00  2.00  2.00  2.00] 1.00
    P   [  6.00  6.00  6.00  6.00]
    D   [ 10.00 10.00]10.00
    F   [ 14.00]


 *******************************************************************************
                  Iteration          Convergence                     Energy [au]
 *******************************************************************************
                          1         2.97449                     -32.469048909917
                          2         1.51232                     -32.730093778384
                          3        0.770492E-01                 -33.038150931874
                          4        0.899165E-02                 -33.038700844726
                          5        0.912724E-04                 -33.038708061630
                          6        0.116870E-06                 -33.038708062376

 Energy components [Hartree]           Total Energy ::          -33.038708062376
                                        Band Energy ::           -2.504413973275
                                     Kinetic Energy ::           24.436658726992
                                   Potential Energy ::          -57.475366789369
                                      Virial (-V/T) ::            2.352014137100
                                        Core Energy ::          -60.057404048498
                                          XC Energy ::           -5.092378680544
                                     Coulomb Energy ::           32.111074666666
                       Total Pseudopotential Energy ::          -84.596446609024
                       Local Pseudopotential Energy ::          -66.210783111100
                    Nonlocal Pseudopotential Energy ::          -18.385663497924
                                        Confinement ::            1.023838335336

 Orbital energies  State     L     Occupation   Energy[a.u.]          Energy[eV]

                       1     0          1.000      -0.189595           -5.159135

                       1     2         10.000      -0.231482           -6.298944


 Total Electron Density at R=0:                                         0.000000

 Spin 1
 Re-scaling the density matrix to get the right number of electrons for spin 1
                  # Electrons              Trace(P)               Scaling factor
                            6                 5.500                        1.091

 Spin 2
 Re-scaling the density matrix to get the right number of electrons for spin 2
                  # Electrons              Trace(P)               Scaling factor
                            5                 5.500                        0.909


 SCF WAVEFUNCTION OPTIMIZATION

  Step     Update method      Time    Convergence         Total energy    Change
  ------------------------------------------------------------------------------
     1 NoMix/Diag. 0.40E+00    2.5     0.71871093       -33.3220819651 -3.33E+01
     2 Broy./Diag. 0.40E+00    2.7     0.79531488       -35.1998002861 -1.88E+00
     3 Broy./Diag. 0.40E+00    2.6     0.09489720       -33.1672449691  2.03E+00
     4 Broy./Diag. 0.40E+00    2.7     0.22302832       -33.3316531225 -1.64E-01
     5 Broy./Diag. 0.40E+00    2.7     0.13483740       -33.3483881595 -1.67E-02
     6 Broy./Diag. 0.40E+00    2.6     0.01577532       -33.3635112700 -1.51E-02
     7 Broy./Diag. 0.40E+00    2.7     0.03225711       -33.3521901940  1.13E-02
     8 Broy./Diag. 0.40E+00    2.7     0.00794382       -33.3456558882  6.53E-03
     9 Broy./Diag. 0.40E+00    2.7     0.00676715       -33.3475663381 -1.91E-03
    10 Broy./Diag. 0.40E+00    2.7     0.00633445       -33.3487541249 -1.19E-03
    11 Broy./Diag. 0.40E+00    2.7     0.01064068       -33.3486188872  1.35E-04
    12 Broy./Diag. 0.40E+00    2.8     0.00294569       -33.3484793829  1.40E-04
    13 Broy./Diag. 0.40E+00    2.7     0.00052994       -33.3486268248 -1.47E-04
    14 Broy./Diag. 0.40E+00    2.7     0.00101308       -33.3487205688 -9.37E-05
    15 Broy./Diag. 0.40E+00    2.8     0.00022723       -33.3487594404 -3.89E-05
    16 Broy./Diag. 0.40E+00    2.7     0.00002078       -33.3487671748 -7.73E-06
    17 Broy./Diag. 0.40E+00    2.7     0.00004425       -33.3487593426  7.83E-06
    18 Broy./Diag. 0.40E+00    2.7     0.00001796       -33.3487502446  9.10E-06
    19 Broy./Diag. 0.40E+00    2.7     0.00000612       -33.3487460260  4.22E-06

  *** SCF run converged in    19 steps ***


  Electronic density on regular grids:        -10.9999999960        0.0000000040
  Core density on regular grids:               10.9999999982       -0.0000000018
  Total charge density on r-space grids:        0.0000000022
  Total charge density g-space grids:           0.0000000022

  Overlap energy of the core charge distribution:               0.00000000310880
  Self energy of the core charge distribution:                -57.85333865193095
  Core Hamiltonian energy:                                     17.81308125409374
  Hartree energy:                                              11.81571428505391
  Exchange-correlation energy:                                 -5.12410096070548
  Electronic entropic energy:                                  -0.00010195596743
[...]


 ENERGY| Total FORCE_EVAL ( QS ) energy [a.u.]:              -33.377883337778201

 --------  Informations at step =    15 ------------
  Optimization Method        =                LBFGS
  Total Energy               =       -33.3778833378
  Internal Pressure [bar]    =        29.6979192593
  Real energy change         =        -0.0000000599
  Decrease in energy         =                  YES
  Used time                  =               61.091

  Convergence check :
  Max. step size             =         0.0015811035
  Conv. limit for step size  =         0.0030000000
  Convergence in step size   =                  YES
  RMS step size              =         0.0006008984
  Conv. limit for RMS step   =         0.0030000000
  Convergence in RMS step    =                  YES
  Max. gradient              =         0.0000305303
  Conv. limit for gradients  =         0.0030000000
  Conv. in gradients         =                  YES
  RMS gradient               =         0.0000150271
  Conv. limit for RMS grad.  =         0.0030000000
  Conv. in RMS gradients     =                  YES
  Pressure Deviation [bar]   =       -70.3020807407
  Pressure Tolerance [bar]   =       100.0000000000
  Conv. for  PRESSURE        =                  YES
 ---------------------------------------------------

 *******************************************************************************
 ***                    GEOMETRY OPTIMIZATION COMPLETED                      ***
 *******************************************************************************

                    Reevaluating energy at the minimum

 CELL| Volume [angstrom^3]:                                            13.835460
 CELL| Vector a [angstrom]:       2.629     0.000     0.000   |a| =     2.629041
 CELL| Vector b [angstrom]:       1.311     2.395     0.000   |b| =     2.730199
 CELL| Vector c [angstrom]:       1.318     0.952     2.198   |c| =     2.733370
 CELL| Angle (b,c), alpha [degree]:                                    57.528208
 CELL| Angle (a,c), beta  [degree]:                                    61.178578
 CELL| Angle (a,b), gamma [degree]:                                    61.294734
 CELL| Numerically orthorhombic:                                              NO

 Spin 1

 Number of electrons:                                                          6
 Number of occupied orbitals:                                                  6
 Number of molecular orbitals:                                                16

 Spin 2

 Number of electrons:                                                          5
 Number of occupied orbitals:                                                  5
 Number of molecular orbitals:                                                16

 Number of orbital functions:                                                 27
 Number of independent orbital functions:                                     27

 Extrapolation method: initial_guess

 Atomic guess: The first density matrix is obtained in terms of atomic orbitals
               and electronic configurations assigned to each atomic kind

 Guess for atomic kind: Au

 Electronic structure
    Total number of core electrons                                         68.00
    Total number of valence electrons                                      11.00
    Total number of electrons                                              79.00
    Multiplicity                                                   not specified
    S   [  2.00  2.00  2.00  2.00  2.00] 1.00
    P   [  6.00  6.00  6.00  6.00]
    D   [ 10.00 10.00]10.00
    F   [ 14.00]


 *******************************************************************************
                  Iteration          Convergence                     Energy [au]
 *******************************************************************************
                          1         2.97449                     -32.469048909917
                          2         1.51232                     -32.730093778384
                          3        0.770492E-01                 -33.038150931874
                          4        0.899165E-02                 -33.038700844726
                          5        0.912724E-04                 -33.038708061630
                          6        0.116870E-06                 -33.038708062376

 Energy components [Hartree]           Total Energy ::          -33.038708062376
                                        Band Energy ::           -2.504413973275
                                     Kinetic Energy ::           24.436658726992
                                   Potential Energy ::          -57.475366789369
                                      Virial (-V/T) ::            2.352014137100
                                        Core Energy ::          -60.057404048498
                                          XC Energy ::           -5.092378680544
                                     Coulomb Energy ::           32.111074666666
                       Total Pseudopotential Energy ::          -84.596446609024
                       Local Pseudopotential Energy ::          -66.210783111100
                    Nonlocal Pseudopotential Energy ::          -18.385663497924
                                        Confinement ::            1.023838335336

 Orbital energies  State     L     Occupation   Energy[a.u.]          Energy[eV]

                       1     0          1.000      -0.189595           -5.159135

                       1     2         10.000      -0.231482           -6.298944


 Total Electron Density at R=0:                                         0.000000

 Spin 1
 Re-scaling the density matrix to get the right number of electrons for spin 1
                  # Electrons              Trace(P)               Scaling factor
                            6                 5.500                        1.091

 Spin 2
 Re-scaling the density matrix to get the right number of electrons for spin 2
                  # Electrons              Trace(P)               Scaling factor
                            5                 5.500                        0.909


 SCF WAVEFUNCTION OPTIMIZATION

  Step     Update method      Time    Convergence         Total energy    Change
  ------------------------------------------------------------------------------
     1 Broy./Diag. 0.40E+00    3.2     2.42522871       -33.3864848637 -3.34E+01
     2 Broy./Diag. 0.40E+00    3.5     1.13461467       -35.3471978616 -1.96E+00
     3 Broy./Diag. 0.40E+00    3.5     0.27490815       -33.3882240168  1.96E+00
     4 Broy./Diag. 0.40E+00    3.6     0.27569440       -33.3742630214  1.40E-02
     5 Broy./Diag. 0.40E+00    3.7     0.01072445       -33.4127145528 -3.85E-02
     6 Broy./Diag. 0.40E+00    3.6     0.07493212       -33.4003800793  1.23E-02
     7 Broy./Diag. 0.40E+00    3.7     0.00865249       -33.3835876697  1.68E-02
     8 Broy./Diag. 0.40E+00    3.6     0.00214401       -33.3790115068  4.58E-03
     9 Broy./Diag. 0.40E+00    3.6     0.00961325       -33.3790467179 -3.52E-05
    10 Broy./Diag. 0.40E+00    3.5     0.01839953       -33.3785481960  4.99E-04
    11 Broy./Diag. 0.40E+00    3.6     0.00162773       -33.3781113601  4.37E-04
    12 Broy./Diag. 0.40E+00    3.5     0.00521828       -33.3779535052  1.58E-04
    13 Broy./Diag. 0.40E+00    3.6     0.00043452       -33.3778828726  7.06E-05
    14 Broy./Diag. 0.40E+00    3.6     0.00010978       -33.3778831985 -3.26E-07
    15 Broy./Diag. 0.40E+00    3.5     0.00004686       -33.3778833305 -1.32E-07
    16 Broy./Diag. 0.40E+00    3.6     0.00000982       -33.3778833422 -1.17E-08

  *** SCF run converged in    16 steps ***


  Electronic density on regular grids:        -10.9999999963        0.0000000037
  Core density on regular grids:               10.9999999982       -0.0000000018
  Total charge density on r-space grids:        0.0000000019
  Total charge density g-space grids:           0.0000000019

  Overlap energy of the core charge distribution:               0.00000018470505
  Self energy of the core charge distribution:                -57.85333865193095
  Core Hamiltonian energy:                                     17.85384555500755
  Hartree energy:                                              11.85675954851015
  Exchange-correlation energy:                                 -5.23508859112438
  Electronic entropic energy:                                  -0.00006138741025
  Fermi energy:                                                 0.40900141879373

  Total energy:                                               -33.37788334223425

  outer SCF iter =    1 RMS gradient =   0.98E-05 energy =        -33.3778833422
  outer SCF loop converged in   1 iterations or   16 steps


  Integrated absolute spin density  :                               0.0000125308

 *** WARNING in qs_scf_post_gpw.F:1764 :: Spin contamination estimate not ***
 *** implemented for k-points.                                            ***


 ENERGY| Total FORCE_EVAL ( QS ) energy [a.u.]:              -33.377883342234249

 -------------------------------------------------------------------------------
 -                                                                             -
 -                                DBCSR STATISTICS                             -
 -                                                                             -
 -------------------------------------------------------------------------------
 COUNTER                                    TOTAL       BLAS       SMM       ACC
 flops inhomo. stacks                           0       0.0%      0.0%      0.0%
 flops total                         0.000000E+00       0.0%      0.0%      0.0%
 flops max/rank                      0.000000E+00       0.0%      0.0%      0.0%
 matmuls inhomo. stacks                         0       0.0%      0.0%      0.0%
 matmuls total                                  0       0.0%      0.0%      0.0%
 number of processed stacks                     0       0.0%      0.0%      0.0%
 average stack size                                     0.0       0.0       0.0
 marketing flops                     0.000000E+00
 -------------------------------------------------------------------------------

 -------------------------------------------------------------------------------
 -                                                                             -
 -                                GRID STATISTICS                              -
 -                                                                             -
 -------------------------------------------------------------------------------
 LP    KERNEL             BACKEND                              COUNT     PERCENT
 4     collocate general  REF                               13107600      50.02%
 4     integrate general  REF                               12846352      49.02%
 7     integrate general  REF                                 250324       0.96%
 0     collocate general  REF                                     24       0.00%
 3     integrate general  REF                                     23       0.00%
 -------------------------------------------------------------------------------

 MEMORY| Estimated peak process memory [MiB]                                 505

 -------------------------------------------------------------------------------
 ----                             MULTIGRID INFO                            ----
 -------------------------------------------------------------------------------
 count for grid        1:           5060          cutoff [a.u.]          170.00
 count for grid        2:           5274          cutoff [a.u.]           56.67
 count for grid        3:           7736          cutoff [a.u.]           18.89
 count for grid        4:           4806          cutoff [a.u.]            6.30
 total gridlevel count  :          22876

 -------------------------------------------------------------------------------
 -                                                                             -
 -                           R E F E R E N C E S                               -
 -                                                                             -
 -------------------------------------------------------------------------------
 
 CP2K version 9.1, the CP2K developers group (2021).
 CP2K is freely available from https://www.cp2k.org/ .

 Kuehne,Thomas D.; Iannuzzi,Marcella; Del Ben,Mauro;
 Rybkin,Vladimir V.; Seewald,Patrick; Stein,Frederick; Laino,Teodoro;
 Khaliullin,Rustam Z.; Schuett,Ole; Schiffmann,Florian; Golze,Dorothea;
 Wilhelm,Jan; Chulkov,Sergey; Bani-Hashemian,Mohammad Hossein;
 Weber,Valery; Borstnik,Urban; Taillefumier,Mathieu;
 Jakobovits,Alice Shoshana; Lazzaro,Alfio; Pabst,Hans; Mueller,Tiziano;
 Schade,Robert; Guidon,Manuel; Andermatt,Samuel; Holmberg,Nico;
 Schenter,Gregory K.; Hehn,Anna; Bussy,Augustin; Belleflamme,Fabian;
 Tabacchi,Gloria; Gloess,Andreas; Lass,Michael; Bethune,Iain;
 Mundy,Christopher J.; Plessl,Christian; Watkins,Matt;
 VandeVondele,Joost; Krack,Matthias; Hutter,Juerg. 
 The Journal of Chemical Physics, 152 (19), (2020). 
 CP2K: An electronic structure and molecular dynamics software package -
 Quickstep: Efficient and accurate electronic structure calculations.
 https://doi.org/10.1063/5.0007045

 Togo, Atsushi; Tanaka, Isao. arXiv, 1808.01590 (2018). 
 Spglib : a software library for crystal symmetry search.
 https://doi.org/xxx

 Schuett, Ole; Messmer, Peter; Hutter, Juerg; VandeVondele, Joost. 
 Electronic Structure Calculations on Graphics Processing Units, John
 Wiley & Sons, Ltd, 173-190 (2016). 
 GPU-Accelerated Sparse Matrix-Matrix Multiplication for
 Linear Scaling Density Functional Theory.
 https://doi.org/10.1002/9781118670712.ch8

 Heinecke, A; Henry, G; Hutchinson, M; Pabst, H. 
 Proceedings of Intl. Supercomputing Conference, 981-991 (2016). 
 LIBXSMM: Accelerating Small Matrix Multiplications
 by Runtime Code Generation.
 https://doi.org/10.1109/SC.2016.83

 Borstnik, U; VandeVondele, J; Weber, V; Hutter, J. 
 PARALLEL COMPUTING, 40 (5-6), 47-58 (2014). 
 Sparse matrix multiplication: The distributed block-compressed sparse
 row library.
 https://doi.org/10.1016/j.parco.2014.03.012

 Hutter, J; Iannuzzi, M; Schiffmann, F; VandeVondele, J. 
 WIREs Comput Mol Sci., 4 (1), 15-25 (2014). 
 CP2K: atomistic simulations of condensed matter systems.
 https://doi.org/10.1002/wcms.1159

 Krack, M. 
 THEORETICAL CHEMISTRY ACCOUNTS, 114 (1-3), 145-152 (2005). 
 Pseudopotentials for H to Kr optimized for gradient-corrected
 exchange-correlation functionals.
 https://doi.org/10.1007/s00214-005-0655-y

 VandeVondele, J; Krack, M; Mohamed, F; Parrinello, M; Chassaing, T;
 Hutter, J. COMPUTER PHYSICS COMMUNICATIONS, 167 (2), 103-128 (2005). 
 QUICKSTEP: Fast and accurate density functional calculations using a
 mixed Gaussian and plane waves approach.
 https://doi.org/10.1016/j.cpc.2004.12.014

 Frigo, M; Johnson, SG. 
 PROCEEDINGS OF THE IEEE, 93 (2), 216-231 (2005). 
 The design and implementation of FFTW3.
 https://doi.org/10.1109/JPROC.2004.840301

 Hartwigsen, C; Goedecker, S; Hutter, J. 
 PHYSICAL REVIEW B, 58 (7), 3641-3662 (1998). 
 Relativistic separable dual-space Gaussian pseudopotentials from H to Rn.
 https://doi.org/10.1103/PhysRevB.58.3641

 Lippert, G; Hutter, J; Parrinello, M. 
 MOLECULAR PHYSICS, 92 (3), 477-487 (1997). 
 A hybrid Gaussian and plane wave density functional scheme.
 https://doi.org/10.1080/002689797170220

 Goedecker, S; Teter, M; Hutter, J. 
 PHYSICAL REVIEW B, 54 (3), 1703-1710 (1996). 
 Separable dual-space Gaussian pseudopotentials.
 https://doi.org/10.1103/PhysRevB.54.1703

 BYRD, RH; LU, PH; NOCEDAL, J; ZHU, CY. 
 SIAM JOURNAL ON SCIENTIFIC COMPUTING, 16 (5), 1190-1208 (1995). 
 A LIMITED MEMORY ALGORITHM FOR BOUND CONSTRAINED OPTIMIZATION.
 https://doi.org/10.1137/0916069


 -------------------------------------------------------------------------------
 -                                                                             -
 -                                T I M I N G                                  -
 -                                                                             -
 -------------------------------------------------------------------------------
 SUBROUTINE                       CALLS  ASD         SELF TIME        TOTAL TIME
                                MAXIMUM       AVERAGE  MAXIMUM  AVERAGE  MAXIMUM
 CP2K                                 1  1.0    0.026    0.026 4321.410 4321.410
 cp_cell_opt                          1  2.0    0.000    0.000 4321.331 4321.331
 geoopt_lbfgs                         1  3.0    0.002    0.002 4321.331 4321.331
 cp_eval_at                          24  5.0    0.004    0.004 4321.282 4321.282
 qs_energies                         24  6.9    0.140    0.140 4278.219 4278.219
 cp_opt_gopt_step                    15  4.0    0.004    0.004 4262.730 4262.730
 qs_forces                           23  6.0    0.023    0.023 4262.682 4262.682
 scf_env_do_scf                      24  7.9    0.003    0.003 4233.809 4233.809
 scf_env_do_scf_inner_loop         1209  9.0    1.462    1.462 4233.806 4233.806
 qs_scf_new_mos_kp                 1209 10.0    0.008    0.008 3491.677 3491.677
 do_general_diag_kp                1209 11.0    9.017    9.017 3491.670 3491.670
 rskp_transform                 1658748 12.0 1810.926 1810.926 1810.926 1810.926
 kpoint_density_transform          1232 11.9    4.172    4.172 1052.364 1052.364
 transform_dmat                  845152 12.9  810.867  810.867  810.867  810.867
 copy_dbcsr_to_fm               1770112 11.9   13.209   13.209  348.725  348.725
 rebuild_ks_matrix                 1232 10.9    0.012    0.012  303.041  303.041
 qs_ks_build_kohn_sham_matrix      1232 11.9    2.882    2.882  303.028  303.028
 qs_ks_update_qs_env               1209 10.0    0.009    0.009  299.437  299.437
 dbcsr_complete_redistribute    2615264 13.2   53.278   53.278  286.224  286.224
 sum_up_and_integrate              1232 12.9    0.180    0.180  271.126  271.126
 integrate_v_rspace                2464 13.9    3.491    3.491  270.941  270.941
 grid_integrate_task_list          2464 14.9  264.587  264.587  264.587  264.587
 qs_rho_update_rho                 1233 10.0    0.008    0.008  250.707  250.707
 calculate_rho_elec                2466 11.0    1.938    1.938  250.699  250.699
 grid_collocate_task_list          2466 12.0  245.345  245.345  245.345  245.345
 dbcsr_create_new               ******* 13.0  121.145  121.145  198.268  198.268
 cp_fm_geeig                     829374 12.0   23.368   23.368  176.371  176.371
 dbcsr_finalize                 6938519 13.4   21.820   21.820  174.725  174.725
 dbcsr_desymmetrize_deep        3428860 12.5   42.785   42.785  170.273  170.273
 gspace_mixing                     1170 10.0    0.598    0.598  138.416  138.416
 cp_fm_syevd                     829374 13.0  132.436  132.436  133.279  133.279
 copy_fm_to_dbcsr                845152 12.9    2.328    2.328  118.400  118.400
 dbcsr_merge_all                2865007 14.9   66.428   66.428   95.883   95.883
 -------------------------------------------------------------------------------

 The number of warnings for this run is : 26
 
 -------------------------------------------------------------------------------
  **** **** ******  **  PROGRAM ENDED AT                 2022-06-07 00:50:44.273
 ***** ** ***  *** **   PROGRAM RAN ON                                    pop-os
 **    ****   ******    PROGRAM RAN BY                             woodrowwilson
 ***** **    ** ** **   PROGRAM PROCESS ID                                  5340
  **** **  *******  **  PROGRAM STOPPED IN /home/woodrowwilson/Documents/Worksho
                                           ps/MSU-DFT-Catalysis-School/2_Solids/
                                           1_CELLOPT/2_cellopt
