
  **** **** ******  **  PROGRAM STARTED AT               2022-06-06 20:09:45.081
 ***** ** ***  *** **   PROGRAM STARTED ON                                pop-os
 **    ****   ******    PROGRAM STARTED BY                         woodrowwilson
 ***** **    ** ** **   PROGRAM PROCESS ID                                  3130
  **** **  *******  **  PROGRAM STARTED IN /home/woodrowwilson/Documents/Worksho
                                           ps/MSU-DFT-Catalysis-School/1_Gas-Pha
                                           se-Molecules/2_O2/3_Vibrational-Modes

 CP2K| version string:                                          CP2K version 9.1
 CP2K| source code revision number:                                  git:d8d7100
 CP2K| cp2kflags: omp libint fftw3 libxc xsmm plumed2 spglib libvori libbqb     
 CP2K| is freely available from                            https://www.cp2k.org/
 CP2K| Program compiled at                       Wed May 25 08:10:51 PM CDT 2022
 CP2K| Program compiled on                                                pop-os
 CP2K| Program compiled for                                PopOS-x86-64-gfortran
 CP2K| Data directory path            /home/woodrowwilson/Programs/cp2k/9.1/data
 CP2K| Input file name                                            O2-VIB-r-0.inp

 GLOBAL| Force Environment number                                              1
 GLOBAL| Basis set file name                                           BASIS_SET
 GLOBAL| Potential file name                                      GTH_POTENTIALS
 GLOBAL| MM Potential file name                                     MM_POTENTIAL
 GLOBAL| Coordinate file name                                      __STD_INPUT__
 GLOBAL| Method name                                                        CP2K
 GLOBAL| Project name                                                 O2-VIB-r-0
 GLOBAL| Run type                                           VIBRATIONAL_ANALYSIS
 GLOBAL| FFT library                                                       FFTW3
 GLOBAL| Diagonalization library                                       ScaLAPACK
 GLOBAL| Orthonormality check for eigenvectors                          DISABLED
 GLOBAL| Matrix multiplication library                                 ScaLAPACK
 GLOBAL| All-to-all communication in single precision                          F
 GLOBAL| FFTs using library dependent lengths                                  F
 GLOBAL| Grid backend                                                       AUTO
 GLOBAL| Global print level                                               MEDIUM
 GLOBAL| MPI I/O enabled                                                       T
 GLOBAL| Total number of message passing processes                             1
 GLOBAL| Number of threads for this process                                   12
 GLOBAL| This output is from process                                           0
 GLOBAL| Stack size for threads created by OpenMP (OMP_STACKSIZE)        default
 GLOBAL| CPU model name                 Intel(R) Core(TM) i7-9750H CPU @ 2.60GHz
 GLOBAL| CPUID                                                              1002

 MEMORY| system memory details [Kb]
 MEMORY|                        rank 0           min           max       average
 MEMORY| MemTotal             32580248      32580248      32580248      32580248
 MEMORY| MemFree              28671000      28671000      28671000      28671000
 MEMORY| Buffers                125720        125720        125720        125720
 MEMORY| Cached                2094328       2094328       2094328       2094328
 MEMORY| Slab                   201168        201168        201168        201168
 MEMORY| SReclaimable            95252         95252         95252         95252
 MEMORY| MemLikelyFree        30986300      30986300      30986300      30986300


 *** Fundamental physical constants (SI units) ***

 *** Literature: B. J. Mohr and B. N. Taylor,
 ***             CODATA recommended values of the fundamental physical
 ***             constants: 2006, Web Version 5.1
 ***             http://physics.nist.gov/constants

 Speed of light in vacuum [m/s]                             2.99792458000000E+08
 Magnetic constant or permeability of vacuum [N/A**2]       1.25663706143592E-06
 Electric constant or permittivity of vacuum [F/m]          8.85418781762039E-12
 Planck constant (h) [J*s]                                  6.62606896000000E-34
 Planck constant (h-bar) [J*s]                              1.05457162825177E-34
 Elementary charge [C]                                      1.60217648700000E-19
 Electron mass [kg]                                         9.10938215000000E-31
 Electron g factor [ ]                                     -2.00231930436220E+00
 Proton mass [kg]                                           1.67262163700000E-27
 Fine-structure constant                                    7.29735253760000E-03
 Rydberg constant [1/m]                                     1.09737315685270E+07
 Avogadro constant [1/mol]                                  6.02214179000000E+23
 Boltzmann constant [J/K]                                   1.38065040000000E-23
 Atomic mass unit [kg]                                      1.66053878200000E-27
 Bohr radius [m]                                            5.29177208590000E-11

 *** Conversion factors ***

 [u] -> [a.u.]                                              1.82288848426455E+03
 [Angstrom] -> [Bohr] = [a.u.]                              1.88972613288564E+00
 [a.u.] = [Bohr] -> [Angstrom]                              5.29177208590000E-01
 [a.u.] -> [s]                                              2.41888432650478E-17
 [a.u.] -> [fs]                                             2.41888432650478E-02
 [a.u.] -> [J]                                              4.35974393937059E-18
 [a.u.] -> [N]                                              8.23872205491840E-08
 [a.u.] -> [K]                                              3.15774647902944E+05
 [a.u.] -> [kJ/mol]                                         2.62549961709828E+03
 [a.u.] -> [kcal/mol]                                       6.27509468713739E+02
 [a.u.] -> [Pa]                                             2.94210107994716E+13
 [a.u.] -> [bar]                                            2.94210107994716E+08
 [a.u.] -> [atm]                                            2.90362800883016E+08
 [a.u.] -> [eV]                                             2.72113838565563E+01
 [a.u.] -> [Hz]                                             6.57968392072181E+15
 [a.u.] -> [1/cm] (wave numbers)                            2.19474631370540E+05
 [a.u./Bohr**2] -> [1/cm]                                   5.14048714338585E+03
 

 CELL_TOP| Volume [angstrom^3]:                                       512.000000
 CELL_TOP| Vector a [angstrom     8.000     0.000     0.000   |a| =     8.000000
 CELL_TOP| Vector b [angstrom     0.000     8.000     0.000   |b| =     8.000000
 CELL_TOP| Vector c [angstrom     0.000     0.000     8.000   |c| =     8.000000
 CELL_TOP| Angle (b,c), alpha [degree]:                                90.000000
 CELL_TOP| Angle (a,c), beta  [degree]:                                90.000000
 CELL_TOP| Angle (a,b), gamma [degree]:                                90.000000
 CELL_TOP| Numerically orthorhombic:                                         YES

 GENERATE|  Preliminary Number of Bonds generated:                             0
 GENERATE|  Achieved consistency in connectivity generation.

 CELL| Volume [angstrom^3]:                                           512.000000
 CELL| Vector a [angstrom]:       8.000     0.000     0.000   |a| =     8.000000
 CELL| Vector b [angstrom]:       0.000     8.000     0.000   |b| =     8.000000
 CELL| Vector c [angstrom]:       0.000     0.000     8.000   |c| =     8.000000
 CELL| Angle (b,c), alpha [degree]:                                    90.000000
 CELL| Angle (a,c), beta  [degree]:                                    90.000000
 CELL| Angle (a,b), gamma [degree]:                                    90.000000
 CELL| Numerically orthorhombic:                                             YES

 CELL_REF| Volume [angstrom^3]:                                       512.000000
 CELL_REF| Vector a [angstrom     8.000     0.000     0.000   |a| =     8.000000
 CELL_REF| Vector b [angstrom     0.000     8.000     0.000   |b| =     8.000000
 CELL_REF| Vector c [angstrom     0.000     0.000     8.000   |c| =     8.000000
 CELL_REF| Angle (b,c), alpha [degree]:                                90.000000
 CELL_REF| Angle (a,c), beta  [degree]:                                90.000000
 CELL_REF| Angle (a,b), gamma [degree]:                                90.000000
 CELL_REF| Numerically orthorhombic:                                         YES

 *******************************************************************************
 *******************************************************************************
 **                                                                           **
 **     #####                         ##              ##                      **
 **    ##   ##            ##          ##              ##                      **
 **   ##     ##                       ##            ######                    **
 **   ##     ##  ##   ##  ##   #####  ##  ##   ####   ##    #####    #####    **
 **   ##     ##  ##   ##  ##  ##      ## ##   ##      ##   ##   ##  ##   ##   **
 **   ##  ## ##  ##   ##  ##  ##      ####     ###    ##   ######   ######    **
 **    ##  ###   ##   ##  ##  ##      ## ##      ##   ##   ##       ##        **
 **     #######   #####   ##   #####  ##  ##  ####    ##    #####   ##        **
 **           ##                                                    ##        **
 **                                                                           **
 **                                                ... make the atoms dance   **
 **                                                                           **
 **            Copyright (C) by CP2K developers group (2000-2021)             **
 **                      J. Chem. Phys. 152, 194103 (2020)                    **
 **                                                                           **
 *******************************************************************************

 DFT| Spin unrestricted (spin-polarized) Kohn-Sham calculation               UKS
 DFT| Multiplicity                                                             3
 DFT| Number of spin states                                                    2
 DFT| Charge                                                                   0
 DFT| Self-interaction correction (SIC)                                       NO
 DFT| Cutoffs: density                                              1.000000E-10
 DFT|          gradient                                             1.000000E-10
 DFT|          tau                                                  1.000000E-10
 DFT|          cutoff_smoothing_range                               0.000000E+00
 DFT| XC density smoothing                                                  NONE
 DFT| XC derivatives                                                          PW
 FUNCTIONAL| ROUTINE=NEW
 FUNCTIONAL| PADE:
 FUNCTIONAL| S. Goedecker, M. Teter and J. Hutter, Phys. Rev. B 54, 1703 (1996) 

 QS| Method:                                                                 GPW
 QS| Density plane wave grid type                        NON-SPHERICAL FULLSPACE
 QS| Number of grid levels:                                                    4
 QS| Density cutoff [a.u.]:                                                170.0
 QS| Multi grid cutoff [a.u.]: 1) grid level                               170.0
 QS|                           2) grid level                                56.7
 QS|                           3) grid level                                18.9
 QS|                           4) grid level                                 6.3
 QS| Grid level progression factor:                                          3.0
 QS| Relative density cutoff [a.u.]:                                        20.0
 QS| Interaction thresholds: eps_pgf_orb:                                1.0E-05
 QS|                         eps_filter_matrix:                          0.0E+00
 QS|                         eps_core_charge:                            1.0E-12
 QS|                         eps_rho_gspace:                             1.0E-10
 QS|                         eps_rho_rspace:                             1.0E-10
 QS|                         eps_gvg_rspace:                             1.0E-05
 QS|                         eps_ppl:                                    1.0E-02
 QS|                         eps_ppnl:                                   1.0E-07


 ATOMIC KIND INFORMATION

  1. Atomic kind: O                                     Number of atoms:       2

     Orbital Basis Set                                             DZVP-GTH-PADE

       Number of orbital shell sets:                                           2
       Number of orbital shells:                                               5
       Number of primitive Cartesian functions:                                5
       Number of Cartesian basis functions:                                   14
       Number of spherical basis functions:                                   13
       Norm type:                                                              2

       Normalised Cartesian orbitals:

                        Set   Shell   Orbital            Exponent    Coefficient

                          1       1    2s                8.304404       0.526521
                                                         2.457945      -0.055011
                                                         0.759736      -0.404341
                                                         0.213639      -0.086026

                          1       2    3s                8.304404       0.000000
                                                         2.457945       0.000000
                                                         0.759736       0.000000
                                                         0.213639       0.223960

                          1       3    3px               8.304404      -2.000758
                                                         2.457945      -1.321077
                                                         0.759736      -0.480331
                                                         0.213639      -0.078647
                          1       3    3py               8.304404      -2.000758
                                                         2.457945      -1.321077
                                                         0.759736      -0.480331
                                                         0.213639      -0.078647
                          1       3    3pz               8.304404      -2.000758
                                                         2.457945      -1.321077
                                                         0.759736      -0.480331
                                                         0.213639      -0.078647

                          1       4    4px               8.304404       0.000000
                                                         2.457945       0.000000
                                                         0.759736       0.000000
                                                         0.213639       0.207033
                          1       4    4py               8.304404       0.000000
                                                         2.457945       0.000000
                                                         0.759736       0.000000
                                                         0.213639       0.207033
                          1       4    4pz               8.304404       0.000000
                                                         2.457945       0.000000
                                                         0.759736       0.000000
                                                         0.213639       0.207033

                          2       1    3dx2              0.800000       1.113825
                          2       1    3dxy              0.800000       1.929201
                          2       1    3dxz              0.800000       1.929201
                          2       1    3dy2              0.800000       1.113825
                          2       1    3dyz              0.800000       1.929201
                          2       1    3dz2              0.800000       1.113825

       Atomic covalent radius [Angstrom]:                                  0.730

       Atomic van der Waals radius [Angstrom]:                             1.520

     GTH Potential information for                                   GTH-PADE-q6

       Description:                       Goedecker-Teter-Hutter pseudopotential
                                           Goedecker et al., PRB 54, 1703 (1996)
                                          Hartwigsen et al., PRB 58, 3641 (1998)
                                                      Krack, TCA 114, 145 (2005)

       Gaussian exponent of the core charge distribution:               8.154466
       Electronic configuration (s p d ...):                               2   4

       Parameters of the local part of the GTH pseudopotential:

                          rloc        C1          C2          C3          C4
                        0.247621  -16.580318    2.395701

       Parameters of the non-local part of the GTH pseudopotential:

                   l      r(l)      h(i,j,l)

                   0    0.221786   18.266917
                   1    0.256829


 MOLECULE KIND INFORMATION


 All atoms are their own molecule, skipping detailed information


 TOTAL NUMBERS AND MAXIMUM NUMBERS

  Total number of            - Atomic kinds:                                   1
                             - Atoms:                                          2
                             - Shell sets:                                     4
                             - Shells:                                        10
                             - Primitive Cartesian functions:                 10
                             - Cartesian basis functions:                     28
                             - Spherical basis functions:                     26

  Maximum angular momentum of- Orbital basis functions:                        2
                             - Local part of the GTH pseudopotential:          2
                             - Non-local part of the GTH pseudopotential:      0


 MODULE QUICKSTEP:  ATOMIC COORDINATES IN angstrom

 Atom  Kind  Element       X           Y           Z          Z(eff)       Mass
    1   1 O    8       3.889788    4.000000    4.000000       6.0000     15.9994
    2   1 O    8       5.111764    4.000000    4.000000       6.0000     15.9994




 SCF PARAMETERS         Density guess:                                    ATOMIC
                        --------------------------------------------------------
                        max_scf:                                              50
                        max_scf_history:                                       0
                        max_diis:                                              4
                        --------------------------------------------------------
                        eps_scf:                                        1.00E-08
                        eps_scf_history:                                0.00E+00
                        eps_diis:                                       1.00E-01
                        eps_eigval:                                     1.00E-05
                        --------------------------------------------------------
                        level_shift [a.u.]:                                 0.00
                        --------------------------------------------------------
                        Outer loop SCF in use 
                        No variables optimised in outer loop
                        eps_scf                                         1.00E-05
                        max_scf                                               50
                        No outer loop optimization
                        step_size                                       5.00E-01

 PW_GRID| Information for grid number                                          5
 PW_GRID| Cutoff [a.u.]                                                    170.0
 PW_GRID| spherical cutoff:                                                   NO
 PW_GRID|   Bounds   1            -45      44                Points:          90
 PW_GRID|   Bounds   2            -45      44                Points:          90
 PW_GRID|   Bounds   3            -45      44                Points:          90
 PW_GRID| Volume element (a.u.^3)  0.4740E-02     Volume (a.u.^3)      3455.1473
 PW_GRID| Grid span                                                    FULLSPACE

 PW_GRID| Information for grid number                                          6
 PW_GRID| Number of the reference grid                                         5
 PW_GRID| Cutoff [a.u.]                                                     56.7
 PW_GRID| spherical cutoff:                                                   NO
 PW_GRID|   Bounds   1            -27      26                Points:          54
 PW_GRID|   Bounds   2            -27      26                Points:          54
 PW_GRID|   Bounds   3            -27      26                Points:          54
 PW_GRID| Volume element (a.u.^3)  0.2194E-01     Volume (a.u.^3)      3455.1473
 PW_GRID| Grid span                                                    FULLSPACE

 PW_GRID| Information for grid number                                          7
 PW_GRID| Number of the reference grid                                         5
 PW_GRID| Cutoff [a.u.]                                                     18.9
 PW_GRID| spherical cutoff:                                                   NO
 PW_GRID|   Bounds   1            -15      14                Points:          30
 PW_GRID|   Bounds   2            -15      14                Points:          30
 PW_GRID|   Bounds   3            -15      14                Points:          30
 PW_GRID| Volume element (a.u.^3)  0.1280         Volume (a.u.^3)      3455.1473
 PW_GRID| Grid span                                                    FULLSPACE

 PW_GRID| Information for grid number                                          8
 PW_GRID| Number of the reference grid                                         5
 PW_GRID| Cutoff [a.u.]                                                      6.3
 PW_GRID| spherical cutoff:                                                   NO
 PW_GRID|   Bounds   1             -9       8                Points:          18
 PW_GRID|   Bounds   2             -9       8                Points:          18
 PW_GRID|   Bounds   3             -9       8                Points:          18
 PW_GRID| Volume element (a.u.^3)  0.5924         Volume (a.u.^3)      3455.1473
 PW_GRID| Grid span                                                    FULLSPACE

 POISSON| Solver                                                        PERIODIC
 POISSON| Periodicity                                                        XYZ

 RS_GRID| Information for grid number                                          5
 RS_GRID|   Bounds   1            -45      44                Points:          90
 RS_GRID|   Bounds   2            -45      44                Points:          90
 RS_GRID|   Bounds   3            -45      44                Points:          90

 RS_GRID| Information for grid number                                          6
 RS_GRID|   Bounds   1            -27      26                Points:          54
 RS_GRID|   Bounds   2            -27      26                Points:          54
 RS_GRID|   Bounds   3            -27      26                Points:          54

 RS_GRID| Information for grid number                                          7
 RS_GRID|   Bounds   1            -15      14                Points:          30
 RS_GRID|   Bounds   2            -15      14                Points:          30
 RS_GRID|   Bounds   3            -15      14                Points:          30

 RS_GRID| Information for grid number                                          8
 RS_GRID|   Bounds   1             -9       8                Points:          18
 RS_GRID|   Bounds   2             -9       8                Points:          18
 RS_GRID|   Bounds   3             -9       8                Points:          18

 Spin 1

 Number of electrons:                                                          7
 Number of occupied orbitals:                                                  7
 Number of molecular orbitals:                                                 7

 Spin 2

 Number of electrons:                                                          5
 Number of occupied orbitals:                                                  5
 Number of molecular orbitals:                                                 5

 Number of orbital functions:                                                 26
 Number of independent orbital functions:                                     26

 Extrapolation method: initial_guess

 Atomic guess: The first density matrix is obtained in terms of atomic orbitals
               and electronic configurations assigned to each atomic kind

 Guess for atomic kind: O

 Electronic structure
    Total number of core electrons                                          2.00
    Total number of valence electrons                                       6.00
    Total number of electrons                                               8.00
    Multiplicity                                                   not specified
    S   [  2.00] 2.00
    P      4.00


 *******************************************************************************
                  Iteration          Convergence                     Energy [au]
 *******************************************************************************
                          1        0.646148                     -15.636779198680
                          2        0.563412                     -15.645844224453
                          3        0.777098E-02                 -15.702646985730
                          4        0.181933E-02                 -15.702656239616
                          5        0.462182E-03                 -15.702656742008
                          6        0.259018E-03                 -15.702656765778
                          7        0.325657E-06                 -15.702656776662

 Energy components [Hartree]           Total Energy ::          -15.702656776662
                                        Band Energy ::           -2.982158420927
                                     Kinetic Energy ::           11.942299328633
                                   Potential Energy ::          -27.644956105295
                                      Virial (-V/T) ::            2.314877172691
                                        Core Energy ::          -26.240315954047
                                          XC Energy ::           -3.168822192398
                                     Coulomb Energy ::           13.706481369783
                       Total Pseudopotential Energy ::          -38.217118818507
                       Local Pseudopotential Energy ::          -39.522372330173
                    Nonlocal Pseudopotential Energy ::            1.305253511666
                                        Confinement ::            0.345035358268

 Orbital energies  State     L     Occupation   Energy[a.u.]          Energy[eV]

                       1     0          2.000      -0.854038          -23.239545

                       1     1          4.000      -0.318521           -8.667392


 Total Electron Density at R=0:                                         0.000667

 Spin 1
 Re-scaling the density matrix to get the right number of electrons for spin 1
                  # Electrons              Trace(P)               Scaling factor
                            7                 6.000                        1.167

 Spin 2
 Re-scaling the density matrix to get the right number of electrons for spin 2
                  # Electrons              Trace(P)               Scaling factor
                            5                 6.000                        0.833


 SCF WAVEFUNCTION OPTIMIZATION

  ----------------------------------- OT ---------------------------------------
  Minimizer      : DIIS                : direct inversion
                                         in the iterative subspace
                                         using   7 DIIS vectors
                                         safer DIIS on
  Preconditioner : FULL_SINGLE_INVERSE : inversion of 
                                         H + eS - 2*(Sc)(c^T*H*c+const)(Sc)^T
  Precond_solver : DEFAULT
  stepsize       :    0.08000000                  energy_gap     :    0.08000000
  eps_taylor     :   0.10000E-15                  max_taylor     :             4
  ----------------------------------- OT ---------------------------------------

  Step     Update method      Time    Convergence         Total energy    Change
  ------------------------------------------------------------------------------
     1 OT DIIS     0.80E-01    0.9     0.11930788       -30.8469642904 -3.08E+01
     2 OT DIIS     0.80E-01    0.3     0.10715958       -31.1486566941 -3.02E-01
     3 OT DIIS     0.80E-01    0.4     0.10136117       -31.3367215274 -1.88E-01
     4 OT DIIS     0.80E-01    0.4     0.09540207       -31.4906762878 -1.54E-01
     5 OT DIIS     0.80E-01    0.4     0.05985991       -31.7536921393 -2.63E-01
     6 OT DIIS     0.80E-01    0.4     0.07884184       -31.7501205529  3.57E-03
     7 OT DIIS     0.80E-01    0.4     0.02114959       -31.8316954361 -8.16E-02
     8 OT DIIS     0.80E-01    0.3     0.01765062       -31.8430094568 -1.13E-02
     9 OT DIIS     0.80E-01    0.3     0.01122722       -31.8542166375 -1.12E-02
    10 OT DIIS     0.80E-01    0.3     0.00537561       -31.8618110816 -7.59E-03
    11 OT DIIS     0.80E-01    0.3     0.00440390       -31.8633102471 -1.50E-03
    12 OT DIIS     0.80E-01    0.4     0.00246391       -31.8644767435 -1.17E-03
    13 OT DIIS     0.80E-01    0.4     0.00120123       -31.8646770717 -2.00E-04
    14 OT DIIS     0.80E-01    0.4     0.00069779       -31.8647619218 -8.49E-05
    15 OT DIIS     0.80E-01    0.4     0.00042703       -31.8647883967 -2.65E-05
    16 OT DIIS     0.80E-01    0.4     0.00031026       -31.8647985400 -1.01E-05
    17 OT DIIS     0.80E-01    0.3     0.00021493       -31.8648048245 -6.28E-06
    18 OT DIIS     0.80E-01    0.3     0.00012704       -31.8648087358 -3.91E-06
    19 OT DIIS     0.80E-01    0.3     0.00009583       -31.8648098824 -1.15E-06
    20 OT DIIS     0.80E-01    0.3     0.00005857       -31.8648108236 -9.41E-07
    21 OT DIIS     0.80E-01    0.4     0.00003975       -31.8648111456 -3.22E-07
    22 OT DIIS     0.80E-01    0.4     0.00002325       -31.8648113197 -1.74E-07
    23 OT DIIS     0.80E-01    0.4     0.00001777       -31.8648113575 -3.79E-08
    24 OT DIIS     0.80E-01    0.4     0.00001208       -31.8648113833 -2.58E-08
    25 OT DIIS     0.80E-01    0.4     0.00000825       -31.8648113959 -1.26E-08
    26 OT DIIS     0.80E-01    0.4     0.00000637       -31.8648113999 -4.05E-09
    27 OT DIIS     0.80E-01    0.3     0.00000396       -31.8648114036 -3.64E-09
    28 OT DIIS     0.80E-01    0.3     0.00000263       -31.8648114048 -1.25E-09
    29 OT DIIS     0.80E-01    0.3     0.00000170       -31.8648114053 -5.10E-10
    30 OT DIIS     0.80E-01    0.3     0.00000120       -31.8648114056 -2.04E-10
    31 OT DIIS     0.80E-01    0.4     0.00000084       -31.8648114057 -1.08E-10
    32 OT DIIS     0.80E-01    0.4     0.00000063       -31.8648114057 -5.32E-11
    33 OT DIIS     0.80E-01    0.4     0.00000050       -31.8648114057 -2.57E-11
    34 OT DIIS     0.80E-01    0.4     0.00000038       -31.8648114058 -1.70E-11
    35 OT DIIS     0.80E-01    0.4     0.00000029       -31.8648114058 -1.08E-11
    36 OT DIIS     0.80E-01    0.3     0.00000022       -31.8648114058 -6.72E-12
    37 OT DIIS     0.80E-01    0.3     0.00000015       -31.8648114058 -4.58E-12
    38 OT DIIS     0.80E-01    0.3     0.00000011       -31.8648114058 -1.65E-12
    39 OT DIIS     0.80E-01    0.3     0.00000007       -31.8648114058 -1.25E-12
    40 OT DIIS     0.80E-01    0.4     0.00000006       -31.8648114058 -3.91E-13
    41 OT DIIS     0.80E-01    0.5     0.00000004       -31.8648114058 -2.17E-13
    42 OT DIIS     0.80E-01    0.4     0.00000003       -31.8648114058 -1.21E-13
    43 OT DIIS     0.80E-01    0.4     0.00000002       -31.8648114058 -5.68E-14
    44 OT DIIS     0.80E-01    0.3     0.00000002       -31.8648114058 -3.55E-14
    45 OT DIIS     0.80E-01    0.3     0.00000001       -31.8648114058 -1.07E-14
    46 OT DIIS     0.80E-01    0.3     0.00000001       -31.8648114058 -7.11E-15
    47 OT DIIS     0.80E-01    0.3     7.7715E-09       -31.8648114058 -1.42E-14

  *** SCF run converged in    47 steps ***


  Electronic density on regular grids:        -11.9999999966        0.0000000034
  Core density on regular grids:               11.9999999997       -0.0000000003
  Total charge density on r-space grids:        0.0000000031
  Total charge density g-space grids:           0.0000000031

  Overlap energy of the core charge distribution:               0.00000000081143
  Self energy of the core charge distribution:                -82.02388525635212
  Core Hamiltonian energy:                                     23.23190118660341
  Hartree energy:                                              33.61203322168257
  Exchange-correlation energy:                                 -6.68486055852898

  Total energy:                                               -31.86481140578370

  outer SCF iter =    1 RMS gradient =   0.78E-08 energy =        -31.8648114058
  outer SCF loop converged in   1 iterations or   47 steps


  Integrated absolute spin density  :                               2.0293292041
  Ideal and single determinant S**2 :                    2.000000       2.004498

 ENERGY| Total FORCE_EVAL ( QS ) energy [a.u.]:              -31.864811405783708

 Spin 1

 Number of electrons:                                                          7
 Number of occupied orbitals:                                                  7
 Number of molecular orbitals:                                                 7

 Spin 2

 Number of electrons:                                                          5
 Number of occupied orbitals:                                                  5
 Number of molecular orbitals:                                                 5

 Number of orbital functions:                                                 26
 Number of independent orbital functions:                                     26

 Parameters for the always stable predictor-corrector (ASPC) method:

  ASPC order: 0

  B(1) =   1.000000

 Parameters for the always stable predictor-corrector (ASPC) method:

  ASPC order: 0

  B(1) =   1.000000

 Extrapolation method: ASPC


 SCF WAVEFUNCTION OPTIMIZATION

  ----------------------------------- OT ---------------------------------------
  Minimizer      : DIIS                : direct inversion
                                         in the iterative subspace
                                         using   7 DIIS vectors
                                         safer DIIS on
  Preconditioner : FULL_SINGLE_INVERSE : inversion of 
                                         H + eS - 2*(Sc)(c^T*H*c+const)(Sc)^T
  Precond_solver : DEFAULT
  stepsize       :    0.08000000                  energy_gap     :    0.08000000
  eps_taylor     :   0.10000E-15                  max_taylor     :             4
  ----------------------------------- OT ---------------------------------------

  Step     Update method      Time    Convergence         Total energy    Change
  ------------------------------------------------------------------------------
     1 OT DIIS     0.80E-01    0.8     0.00074443       -31.8648052769 -3.19E+01
     2 OT DIIS     0.80E-01    0.2     0.00059378       -31.8648176860 -1.24E-05
     3 OT DIIS     0.80E-01    0.2     0.00019139       -31.8648398311 -2.21E-05
     4 OT DIIS     0.80E-01    0.2     0.00007008       -31.8648421798 -2.35E-06
     5 OT DIIS     0.80E-01    0.2     0.00002376       -31.8648425091 -3.29E-07
     6 OT DIIS     0.80E-01    0.2     0.00000899       -31.8648425516 -4.25E-08
     7 OT DIIS     0.80E-01    0.2     0.00000443       -31.8648425569 -5.31E-09
     8 OT DIIS     0.80E-01    0.2     0.00000251       -31.8648425577 -8.33E-10
     9 OT DIIS     0.80E-01    0.2     0.00000097       -31.8648425581 -4.10E-10
    10 OT DIIS     0.80E-01    0.2     0.00000075       -31.8648425582 -3.02E-11
    11 OT DIIS     0.80E-01    0.2     0.00000030       -31.8648425582 -3.86E-11
    12 OT DIIS     0.80E-01    0.2     0.00000013       -31.8648425582 -5.68E-12
    13 OT DIIS     0.80E-01    0.2     0.00000010       -31.8648425582 -4.97E-13
    14 OT DIIS     0.80E-01    0.2     0.00000006       -31.8648425582 -5.01E-13
    15 OT DIIS     0.80E-01    0.2     0.00000001       -31.8648425582 -3.45E-13
    16 OT DIIS     0.80E-01    0.2     9.6039E-09       -31.8648425582 -3.55E-15

  *** SCF run converged in    16 steps ***


  Electronic density on regular grids:        -11.9999999969        0.0000000031
  Core density on regular grids:               11.9999999997       -0.0000000003
  Total charge density on r-space grids:        0.0000000028
  Total charge density g-space grids:           0.0000000028

  Overlap energy of the core charge distribution:               0.00000000066646
  Self energy of the core charge distribution:                -82.02388525635212
  Core Hamiltonian energy:                                     23.21321689925427
  Hartree energy:                                              33.62594586092101
  Exchange-correlation energy:                                 -6.68012006269561

  Total energy:                                               -31.86484255820598

  outer SCF iter =    1 RMS gradient =   0.96E-08 energy =        -31.8648425582
  outer SCF loop converged in   1 iterations or   16 steps


  Integrated absolute spin density  :                               2.0295295938
  Ideal and single determinant S**2 :                    2.000000       2.004527

 ENERGY| Total FORCE_EVAL ( QS ) energy [a.u.]:              -31.864842558205986

 Spin 1

 Number of electrons:                                                          7
 Number of occupied orbitals:                                                  7
 Number of molecular orbitals:                                                 7

 Spin 2

 Number of electrons:                                                          5
 Number of occupied orbitals:                                                  5
 Number of molecular orbitals:                                                 5

 Number of orbital functions:                                                 26
 Number of independent orbital functions:                                     26

 Parameters for the always stable predictor-corrector (ASPC) method:

  ASPC order: 0

  B(1) =   2.000000
  B(2) =  -1.000000

 Parameters for the always stable predictor-corrector (ASPC) method:

  ASPC order: 0

  B(1) =   2.000000
  B(2) =  -1.000000

 Extrapolation method: ASPC


 SCF WAVEFUNCTION OPTIMIZATION

  ----------------------------------- OT ---------------------------------------
  Minimizer      : DIIS                : direct inversion
                                         in the iterative subspace
                                         using   7 DIIS vectors
                                         safer DIIS on
  Preconditioner : FULL_SINGLE_INVERSE : inversion of 
                                         H + eS - 2*(Sc)(c^T*H*c+const)(Sc)^T
  Precond_solver : DEFAULT
  stepsize       :    0.08000000                  energy_gap     :    0.08000000
  eps_taylor     :   0.10000E-15                  max_taylor     :             4
  ----------------------------------- OT ---------------------------------------

  Step     Update method      Time    Convergence         Total energy    Change
  ------------------------------------------------------------------------------
     1 OT DIIS     0.80E-01    0.6     0.00118264       -31.8647427676 -3.19E+01
     2 OT DIIS     0.80E-01    0.2     0.00095393       -31.8647742247 -3.15E-05
     3 OT DIIS     0.80E-01    0.2     0.00034622       -31.8648335702 -5.93E-05
     4 OT DIIS     0.80E-01    0.2     0.00011829       -31.8648414027 -7.83E-06
     5 OT DIIS     0.80E-01    0.2     0.00003839       -31.8648424351 -1.03E-06
     6 OT DIIS     0.80E-01    0.2     0.00001335       -31.8648425449 -1.10E-07
     7 OT DIIS     0.80E-01    0.2     0.00000704       -31.8648425534 -8.55E-09
     8 OT DIIS     0.80E-01    0.2     0.00000390       -31.8648425561 -2.69E-09
     9 OT DIIS     0.80E-01    0.2     0.00000153       -31.8648425572 -1.08E-09
    10 OT DIIS     0.80E-01    0.2     0.00000116       -31.8648425573 -8.09E-11
    11 OT DIIS     0.80E-01    0.2     0.00000049       -31.8648425574 -9.16E-11
    12 OT DIIS     0.80E-01    0.2     0.00000013       -31.8648425574 -1.71E-11
    13 OT DIIS     0.80E-01    0.2     0.00000010       -31.8648425574 -6.61E-13
    14 OT DIIS     0.80E-01    0.3     0.00000003       -31.8648425574 -6.47E-13
    15 OT DIIS     0.80E-01    0.2     0.00000003       -31.8648425574 -4.62E-14
    16 OT DIIS     0.80E-01    0.2     0.00000001       -31.8648425574 -4.26E-14
    17 OT DIIS     0.80E-01    0.2     2.9295E-09       -31.8648425574  0.00E+00

  *** SCF run converged in    17 steps ***


  Electronic density on regular grids:        -11.9999999969        0.0000000031
  Core density on regular grids:               11.9999999997       -0.0000000003
  Total charge density on r-space grids:        0.0000000028
  Total charge density g-space grids:           0.0000000028

  Overlap energy of the core charge distribution:               0.00000000066646
  Self energy of the core charge distribution:                -82.02388525635212
  Core Hamiltonian energy:                                     23.21321700344565
  Hartree energy:                                              33.62594576830356
  Exchange-correlation energy:                                 -6.68012007343845

  Total energy:                                               -31.86484255737490

  outer SCF iter =    1 RMS gradient =   0.29E-08 energy =        -31.8648425574
  outer SCF loop converged in   1 iterations or   17 steps


  Integrated absolute spin density  :                               2.0295295862
  Ideal and single determinant S**2 :                    2.000000       2.004527

 ENERGY| Total FORCE_EVAL ( QS ) energy [a.u.]:              -31.864842557374899

 Spin 1

 Number of electrons:                                                          7
 Number of occupied orbitals:                                                  7
 Number of molecular orbitals:                                                 7

 Spin 2

 Number of electrons:                                                          5
 Number of occupied orbitals:                                                  5
 Number of molecular orbitals:                                                 5

 Number of orbital functions:                                                 26
 Number of independent orbital functions:                                     26

 Parameters for the always stable predictor-corrector (ASPC) method:

  ASPC order: 1

  B(1) =   2.500000
  B(2) =  -2.000000
  B(3) =   0.500000

 Parameters for the always stable predictor-corrector (ASPC) method:

  ASPC order: 1

  B(1) =   2.500000
  B(2) =  -2.000000
  B(3) =   0.500000

 Extrapolation method: ASPC


 SCF WAVEFUNCTION OPTIMIZATION

  ----------------------------------- OT ---------------------------------------
  Minimizer      : DIIS                : direct inversion
                                         in the iterative subspace
                                         using   7 DIIS vectors
                                         safer DIIS on
  Preconditioner : FULL_SINGLE_INVERSE : inversion of 
                                         H + eS - 2*(Sc)(c^T*H*c+const)(Sc)^T
  Precond_solver : DEFAULT
  stepsize       :    0.08000000                  energy_gap     :    0.08000000
  eps_taylor     :   0.10000E-15                  max_taylor     :             4
  ----------------------------------- OT ---------------------------------------

  Step     Update method      Time    Convergence         Total energy    Change
  ------------------------------------------------------------------------------
     1 OT DIIS     0.80E-01    0.7     0.00170832       -31.8646057401 -3.19E+01
     2 OT DIIS     0.80E-01    0.2     0.00137690       -31.8646713568 -6.56E-05
     3 OT DIIS     0.80E-01    0.2     0.00049756       -31.8647946845 -1.23E-04
     4 OT DIIS     0.80E-01    0.3     0.00017113       -31.8648108172 -1.61E-05
     5 OT DIIS     0.80E-01    0.3     0.00005523       -31.8648129506 -2.13E-06
     6 OT DIIS     0.80E-01    0.3     0.00002286       -31.8648131606 -2.10E-07
     7 OT DIIS     0.80E-01    0.3     0.00001010       -31.8648131921 -3.15E-08
     8 OT DIIS     0.80E-01    0.3     0.00000383       -31.8648131989 -6.81E-09
     9 OT DIIS     0.80E-01    0.3     0.00000208       -31.8648131998 -8.72E-10
    10 OT DIIS     0.80E-01    0.2     0.00000138       -31.8648132000 -1.93E-10
    11 OT DIIS     0.80E-01    0.2     0.00000056       -31.8648132001 -1.34E-10
    12 OT DIIS     0.80E-01    0.2     0.00000017       -31.8648132001 -2.25E-11
    13 OT DIIS     0.80E-01    0.2     0.00000014       -31.8648132001 -7.60E-13
    14 OT DIIS     0.80E-01    0.2     0.00000005       -31.8648132001 -1.44E-12
    15 OT DIIS     0.80E-01    0.2     0.00000003       -31.8648132001 -1.03E-13
    16 OT DIIS     0.80E-01    0.3     0.00000002       -31.8648132001 -6.75E-14
    17 OT DIIS     0.80E-01    0.3     5.5368E-09       -31.8648132001 -1.78E-14

  *** SCF run converged in    17 steps ***


  Electronic density on regular grids:        -11.9999999968        0.0000000032
  Core density on regular grids:               11.9999999997       -0.0000000003
  Total charge density on r-space grids:        0.0000000030
  Total charge density g-space grids:           0.0000000030

  Overlap energy of the core charge distribution:               0.00000000054743
  Self energy of the core charge distribution:                -82.02388525635212
  Core Hamiltonian energy:                                     23.19498823931162
  Hartree energy:                                              33.63956451213070
  Exchange-correlation energy:                                 -6.67548069577264

  Total energy:                                               -31.86481320013501

  outer SCF iter =    1 RMS gradient =   0.55E-08 energy =        -31.8648132001
  outer SCF loop converged in   1 iterations or   17 steps


  Integrated absolute spin density  :                               2.0297271766
  Ideal and single determinant S**2 :                    2.000000       2.004555

 ENERGY| Total FORCE_EVAL ( QS ) energy [a.u.]:              -31.864813200135014

 Spin 1

 Number of electrons:                                                          7
 Number of occupied orbitals:                                                  7
 Number of molecular orbitals:                                                 7

 Spin 2

 Number of electrons:                                                          5
 Number of occupied orbitals:                                                  5
 Number of molecular orbitals:                                                 5

 Number of orbital functions:                                                 26
 Number of independent orbital functions:                                     26

 Parameters for the always stable predictor-corrector (ASPC) method:

  ASPC order: 2

  B(1) =   2.800000
  B(2) =  -2.800000
  B(3) =   1.200000
  B(4) =  -0.200000

 Parameters for the always stable predictor-corrector (ASPC) method:

  ASPC order: 2

  B(1) =   2.800000
  B(2) =  -2.800000
  B(3) =   1.200000
  B(4) =  -0.200000

 Extrapolation method: ASPC


 SCF WAVEFUNCTION OPTIMIZATION

  ----------------------------------- OT ---------------------------------------
  Minimizer      : DIIS                : direct inversion
                                         in the iterative subspace
                                         using   7 DIIS vectors
                                         safer DIIS on
  Preconditioner : FULL_SINGLE_INVERSE : inversion of 
                                         H + eS - 2*(Sc)(c^T*H*c+const)(Sc)^T
  Precond_solver : DEFAULT
  stepsize       :    0.08000000                  energy_gap     :    0.08000000
  eps_taylor     :   0.10000E-15                  max_taylor     :             4
  ----------------------------------- OT ---------------------------------------

  Step     Update method      Time    Convergence         Total energy    Change
  ------------------------------------------------------------------------------
     1 OT DIIS     0.80E-01    0.6     0.00238554       -31.8644551166 -3.19E+01
     2 OT DIIS     0.80E-01    0.2     0.00190778       -31.8645826741 -1.28E-04
     3 OT DIIS     0.80E-01    0.2     0.00063522       -31.8648133141 -2.31E-04
     4 OT DIIS     0.80E-01    0.2     0.00023360       -31.8648390825 -2.58E-05
     5 OT DIIS     0.80E-01    0.2     0.00007853       -31.8648428467 -3.76E-06
     6 OT DIIS     0.80E-01    0.2     0.00003719       -31.8648432805 -4.34E-07
     7 OT DIIS     0.80E-01    0.2     0.00001485       -31.8648433571 -7.66E-08
     8 OT DIIS     0.80E-01    0.2     0.00000473       -31.8648433719 -1.48E-08
     9 OT DIIS     0.80E-01    0.3     0.00000259       -31.8648433732 -1.23E-09
    10 OT DIIS     0.80E-01    0.3     0.00000143       -31.8648433736 -3.85E-10
    11 OT DIIS     0.80E-01    0.2     0.00000077       -31.8648433737 -1.27E-10
    12 OT DIIS     0.80E-01    0.3     0.00000018       -31.8648433737 -4.57E-11
    13 OT DIIS     0.80E-01    0.3     0.00000015       -31.8648433737 -9.09E-13
    14 OT DIIS     0.80E-01    0.2     0.00000004       -31.8648433737 -1.62E-12
    15 OT DIIS     0.80E-01    0.3     0.00000002       -31.8648433737 -1.28E-13
    16 OT DIIS     0.80E-01    0.3     0.00000001       -31.8648433737 -2.13E-14
    17 OT DIIS     0.80E-01    0.2     3.6055E-09       -31.8648433737 -2.13E-14

  *** SCF run converged in    17 steps ***


  Electronic density on regular grids:        -11.9999999969        0.0000000031
  Core density on regular grids:               11.9999999997       -0.0000000003
  Total charge density on r-space grids:        0.0000000028
  Total charge density g-space grids:           0.0000000028

  Overlap energy of the core charge distribution:               0.00000000066646
  Self energy of the core charge distribution:                -82.02388525635212
  Core Hamiltonian energy:                                     23.21321861587248
  Hartree energy:                                              33.62594428067827
  Exchange-correlation energy:                                 -6.68012101459070

  Total energy:                                               -31.86484337372561

  outer SCF iter =    1 RMS gradient =   0.36E-08 energy =        -31.8648433737
  outer SCF loop converged in   1 iterations or   17 steps


  Integrated absolute spin density  :                               2.0295300958
  Ideal and single determinant S**2 :                    2.000000       2.004526

 ENERGY| Total FORCE_EVAL ( QS ) energy [a.u.]:              -31.864843373725609

 Spin 1

 Number of electrons:                                                          7
 Number of occupied orbitals:                                                  7
 Number of molecular orbitals:                                                 7

 Spin 2

 Number of electrons:                                                          5
 Number of occupied orbitals:                                                  5
 Number of molecular orbitals:                                                 5

 Number of orbital functions:                                                 26
 Number of independent orbital functions:                                     26

 Parameters for the always stable predictor-corrector (ASPC) method:

  ASPC order: 3

  B(1) =   3.000000
  B(2) =  -3.428571
  B(3) =   1.928571
  B(4) =  -0.571429
  B(5) =   0.071429

 Parameters for the always stable predictor-corrector (ASPC) method:

  ASPC order: 3

  B(1) =   3.000000
  B(2) =  -3.428571
  B(3) =   1.928571
  B(4) =  -0.571429
  B(5) =   0.071429

 Extrapolation method: ASPC


 SCF WAVEFUNCTION OPTIMIZATION

  ----------------------------------- OT ---------------------------------------
  Minimizer      : DIIS                : direct inversion
                                         in the iterative subspace
                                         using   7 DIIS vectors
                                         safer DIIS on
  Preconditioner : FULL_SINGLE_INVERSE : inversion of 
                                         H + eS - 2*(Sc)(c^T*H*c+const)(Sc)^T
  Precond_solver : DEFAULT
  stepsize       :    0.08000000                  energy_gap     :    0.08000000
  eps_taylor     :   0.10000E-15                  max_taylor     :             4
  ----------------------------------- OT ---------------------------------------

  Step     Update method      Time    Convergence         Total energy    Change
  ------------------------------------------------------------------------------
     1 OT DIIS     0.80E-01    0.8     0.00293317       -31.8642513086 -3.19E+01
     2 OT DIIS     0.80E-01    0.2     0.00234995       -31.8644443014 -1.93E-04
     3 OT DIIS     0.80E-01    0.2     0.00079180       -31.8647966207 -3.52E-04
     4 OT DIIS     0.80E-01    0.3     0.00028724       -31.8648368944 -4.03E-05
     5 OT DIIS     0.80E-01    0.3     0.00009656       -31.8648425817 -5.69E-06
     6 OT DIIS     0.80E-01    0.2     0.00005633       -31.8648431337 -5.52E-07
     7 OT DIIS     0.80E-01    0.3     0.00001823       -31.8648433495 -2.16E-07
     8 OT DIIS     0.80E-01    0.3     0.00000588       -31.8648433716 -2.21E-08
     9 OT DIIS     0.80E-01    0.2     0.00000278       -31.8648433737 -2.08E-09
    10 OT DIIS     0.80E-01    0.2     0.00000157       -31.8648433742 -4.41E-10
    11 OT DIIS     0.80E-01    0.2     0.00000093       -31.8648433743 -1.40E-10
    12 OT DIIS     0.80E-01    0.2     0.00000031       -31.8648433744 -6.22E-11
    13 OT DIIS     0.80E-01    0.2     0.00000025       -31.8648433744 -2.54E-12
    14 OT DIIS     0.80E-01    0.2     0.00000009       -31.8648433744 -4.68E-12
    15 OT DIIS     0.80E-01    0.3     0.00000003       -31.8648433744 -5.36E-13
    16 OT DIIS     0.80E-01    0.2     0.00000002       -31.8648433744 -4.97E-14
    17 OT DIIS     0.80E-01    0.3     4.6486E-09       -31.8648433744 -3.55E-14

  *** SCF run converged in    17 steps ***


  Electronic density on regular grids:        -11.9999999969        0.0000000031
  Core density on regular grids:               11.9999999997       -0.0000000003
  Total charge density on r-space grids:        0.0000000028
  Total charge density g-space grids:           0.0000000028

  Overlap energy of the core charge distribution:               0.00000000066646
  Self energy of the core charge distribution:                -82.02388525635212
  Core Hamiltonian energy:                                     23.21321866101994
  Hartree energy:                                              33.62594424573567
  Exchange-correlation energy:                                 -6.68012102543589

  Total energy:                                               -31.86484337436594

  outer SCF iter =    1 RMS gradient =   0.46E-08 energy =        -31.8648433744
  outer SCF loop converged in   1 iterations or   17 steps


  Integrated absolute spin density  :                               2.0295301002
  Ideal and single determinant S**2 :                    2.000000       2.004527

 ENERGY| Total FORCE_EVAL ( QS ) energy [a.u.]:              -31.864843374365936

 Spin 1

 Number of electrons:                                                          7
 Number of occupied orbitals:                                                  7
 Number of molecular orbitals:                                                 7

 Spin 2

 Number of electrons:                                                          5
 Number of occupied orbitals:                                                  5
 Number of molecular orbitals:                                                 5

 Number of orbital functions:                                                 26
 Number of independent orbital functions:                                     26

 Parameters for the always stable predictor-corrector (ASPC) method:

  ASPC order: 3

  B(1) =   3.000000
  B(2) =  -3.428571
  B(3) =   1.928571
  B(4) =  -0.571429
  B(5) =   0.071429

 Parameters for the always stable predictor-corrector (ASPC) method:

  ASPC order: 3

  B(1) =   3.000000
  B(2) =  -3.428571
  B(3) =   1.928571
  B(4) =  -0.571429
  B(5) =   0.071429

 Extrapolation method: ASPC


 SCF WAVEFUNCTION OPTIMIZATION

  ----------------------------------- OT ---------------------------------------
  Minimizer      : DIIS                : direct inversion
                                         in the iterative subspace
                                         using   7 DIIS vectors
                                         safer DIIS on
  Preconditioner : FULL_SINGLE_INVERSE : inversion of 
                                         H + eS - 2*(Sc)(c^T*H*c+const)(Sc)^T
  Precond_solver : DEFAULT
  stepsize       :    0.08000000                  energy_gap     :    0.08000000
  eps_taylor     :   0.10000E-15                  max_taylor     :             4
  ----------------------------------- OT ---------------------------------------

  Step     Update method      Time    Convergence         Total energy    Change
  ------------------------------------------------------------------------------
     1 OT DIIS     0.80E-01    0.7     0.00235507       -31.8643938695 -3.19E+01
     2 OT DIIS     0.80E-01    0.2     0.00191000       -31.8645188804 -1.25E-04
     3 OT DIIS     0.80E-01    0.2     0.00073299       -31.8647606323 -2.42E-04
     4 OT DIIS     0.80E-01    0.2     0.00022646       -31.8647965432 -3.59E-05
     5 OT DIIS     0.80E-01    0.2     0.00006027       -31.8648006964 -4.15E-06
     6 OT DIIS     0.80E-01    0.2     0.00003242       -31.8648009065 -2.10E-07
     7 OT DIIS     0.80E-01    0.3     0.00001237       -31.8648009739 -6.74E-08
     8 OT DIIS     0.80E-01    0.3     0.00000489       -31.8648009843 -1.04E-08
     9 OT DIIS     0.80E-01    0.3     0.00000240       -31.8648009859 -1.56E-09
    10 OT DIIS     0.80E-01    0.3     0.00000160       -31.8648009862 -2.74E-10
    11 OT DIIS     0.80E-01    0.2     0.00000102       -31.8648009863 -1.29E-10
    12 OT DIIS     0.80E-01    0.3     0.00000027       -31.8648009864 -7.14E-11
    13 OT DIIS     0.80E-01    0.2     0.00000011       -31.8648009864 -4.97E-12
    14 OT DIIS     0.80E-01    0.2     0.00000007       -31.8648009864 -5.97E-13
    15 OT DIIS     0.80E-01    0.2     0.00000005       -31.8648009864 -2.06E-13
    16 OT DIIS     0.80E-01    0.2     9.9844E-09       -31.8648009864 -1.53E-13

  *** SCF run converged in    16 steps ***


  Electronic density on regular grids:        -11.9999999970        0.0000000030
  Core density on regular grids:               11.9999999997       -0.0000000003
  Total charge density on r-space grids:        0.0000000027
  Total charge density g-space grids:           0.0000000027

  Overlap energy of the core charge distribution:               0.00000000054743
  Self energy of the core charge distribution:                -82.02388525635212
  Core Hamiltonian energy:                                     23.19496695670457
  Hartree energy:                                              33.63958206449396
  Exchange-correlation energy:                                 -6.67546475176785

  Total energy:                                               -31.86480098637401

  outer SCF iter =    1 RMS gradient =   0.10E-07 energy =        -31.8648009864
  outer SCF loop converged in   1 iterations or   16 steps


  Integrated absolute spin density  :                               2.0297287533
  Ideal and single determinant S**2 :                    2.000000       2.004555

 ENERGY| Total FORCE_EVAL ( QS ) energy [a.u.]:              -31.864800986374014

 Spin 1

 Number of electrons:                                                          7
 Number of occupied orbitals:                                                  7
 Number of molecular orbitals:                                                 7

 Spin 2

 Number of electrons:                                                          5
 Number of occupied orbitals:                                                  5
 Number of molecular orbitals:                                                 5

 Number of orbital functions:                                                 26
 Number of independent orbital functions:                                     26

 Parameters for the always stable predictor-corrector (ASPC) method:

  ASPC order: 3

  B(1) =   3.000000
  B(2) =  -3.428571
  B(3) =   1.928571
  B(4) =  -0.571429
  B(5) =   0.071429

 Parameters for the always stable predictor-corrector (ASPC) method:

  ASPC order: 3

  B(1) =   3.000000
  B(2) =  -3.428571
  B(3) =   1.928571
  B(4) =  -0.571429
  B(5) =   0.071429

 Extrapolation method: ASPC


 SCF WAVEFUNCTION OPTIMIZATION

  ----------------------------------- OT ---------------------------------------
  Minimizer      : DIIS                : direct inversion
                                         in the iterative subspace
                                         using   7 DIIS vectors
                                         safer DIIS on
  Preconditioner : FULL_SINGLE_INVERSE : inversion of 
                                         H + eS - 2*(Sc)(c^T*H*c+const)(Sc)^T
  Precond_solver : DEFAULT
  stepsize       :    0.08000000                  energy_gap     :    0.08000000
  eps_taylor     :   0.10000E-15                  max_taylor     :             4
  ----------------------------------- OT ---------------------------------------

  Step     Update method      Time    Convergence         Total energy    Change
  ------------------------------------------------------------------------------
     1 OT DIIS     0.80E-01    0.8     0.00217700       -31.8645133761 -3.19E+01
     2 OT DIIS     0.80E-01    0.2     0.00174682       -31.8646197460 -1.06E-04
     3 OT DIIS     0.80E-01    0.2     0.00060413       -31.8648152953 -1.96E-04
     4 OT DIIS     0.80E-01    0.3     0.00021790       -31.8648387573 -2.35E-05
     5 OT DIIS     0.80E-01    0.3     0.00007273       -31.8648421086 -3.35E-06
     6 OT DIIS     0.80E-01    0.3     0.00003376       -31.8648424768 -3.68E-07
     7 OT DIIS     0.80E-01    0.3     0.00001371       -31.8648425424 -6.56E-08
     8 OT DIIS     0.80E-01    0.3     0.00000783       -31.8648425522 -9.81E-09
     9 OT DIIS     0.80E-01    0.3     0.00000289       -31.8648425564 -4.22E-09
    10 OT DIIS     0.80E-01    0.3     0.00000223       -31.8648425567 -2.76E-10
    11 OT DIIS     0.80E-01    0.2     0.00000080       -31.8648425571 -3.56E-10
    12 OT DIIS     0.80E-01    0.2     0.00000018       -31.8648425571 -4.79E-11
    13 OT DIIS     0.80E-01    0.2     0.00000014       -31.8648425571 -9.31E-13
    14 OT DIIS     0.80E-01    0.2     0.00000004       -31.8648425571 -1.50E-12
    15 OT DIIS     0.80E-01    0.2     0.00000003       -31.8648425571 -3.91E-14
    16 OT DIIS     0.80E-01    0.2     7.2116E-09       -31.8648425571 -6.75E-14

  *** SCF run converged in    16 steps ***


  Electronic density on regular grids:        -11.9999999969        0.0000000031
  Core density on regular grids:               11.9999999997       -0.0000000003
  Total charge density on r-space grids:        0.0000000028
  Total charge density g-space grids:           0.0000000028

  Overlap energy of the core charge distribution:               0.00000000066646
  Self energy of the core charge distribution:                -82.02388525635212
  Core Hamiltonian energy:                                     23.21321701240599
  Hartree energy:                                              33.62594575854256
  Exchange-correlation energy:                                 -6.68012007238042

  Total energy:                                               -31.86484255711753

  outer SCF iter =    1 RMS gradient =   0.72E-08 energy =        -31.8648425571
  outer SCF loop converged in   1 iterations or   16 steps


  Integrated absolute spin density  :                               2.0295295780
  Ideal and single determinant S**2 :                    2.000000       2.004527

 ENERGY| Total FORCE_EVAL ( QS ) energy [a.u.]:              -31.864842557117541

 Spin 1

 Number of electrons:                                                          7
 Number of occupied orbitals:                                                  7
 Number of molecular orbitals:                                                 7

 Spin 2

 Number of electrons:                                                          5
 Number of occupied orbitals:                                                  5
 Number of molecular orbitals:                                                 5

 Number of orbital functions:                                                 26
 Number of independent orbital functions:                                     26

 Parameters for the always stable predictor-corrector (ASPC) method:

  ASPC order: 3

  B(1) =   3.000000
  B(2) =  -3.428571
  B(3) =   1.928571
  B(4) =  -0.571429
  B(5) =   0.071429

 Parameters for the always stable predictor-corrector (ASPC) method:

  ASPC order: 3

  B(1) =   3.000000
  B(2) =  -3.428571
  B(3) =   1.928571
  B(4) =  -0.571429
  B(5) =   0.071429

 Extrapolation method: ASPC


 SCF WAVEFUNCTION OPTIMIZATION

  ----------------------------------- OT ---------------------------------------
  Minimizer      : DIIS                : direct inversion
                                         in the iterative subspace
                                         using   7 DIIS vectors
                                         safer DIIS on
  Preconditioner : FULL_SINGLE_INVERSE : inversion of 
                                         H + eS - 2*(Sc)(c^T*H*c+const)(Sc)^T
  Precond_solver : DEFAULT
  stepsize       :    0.08000000                  energy_gap     :    0.08000000
  eps_taylor     :   0.10000E-15                  max_taylor     :             4
  ----------------------------------- OT ---------------------------------------

  Step     Update method      Time    Convergence         Total energy    Change
  ------------------------------------------------------------------------------
     1 OT DIIS     0.80E-01    0.7     0.00227945       -31.8644990898 -3.19E+01
     2 OT DIIS     0.80E-01    0.2     0.00181260       -31.8646153019 -1.16E-04
     3 OT DIIS     0.80E-01    0.2     0.00055882       -31.8648193953 -2.04E-04
     4 OT DIIS     0.80E-01    0.2     0.00019956       -31.8648395573 -2.02E-05
     5 OT DIIS     0.80E-01    0.2     0.00007000       -31.8648421302 -2.57E-06
     6 OT DIIS     0.80E-01    0.2     0.00003893       -31.8648424362 -3.06E-07
     7 OT DIIS     0.80E-01    0.2     0.00001483       -31.8648425433 -1.07E-07
     8 OT DIIS     0.80E-01    0.2     0.00000779       -31.8648425533 -1.01E-08
     9 OT DIIS     0.80E-01    0.2     0.00000286       -31.8648425573 -3.96E-09
    10 OT DIIS     0.80E-01    0.2     0.00000220       -31.8648425576 -2.57E-10
    11 OT DIIS     0.80E-01    0.2     0.00000073       -31.8648425579 -3.44E-10
    12 OT DIIS     0.80E-01    0.2     0.00000033       -31.8648425579 -3.50E-11
    13 OT DIIS     0.80E-01    0.2     0.00000026       -31.8648425579 -3.03E-12
    14 OT DIIS     0.80E-01    0.2     0.00000013       -31.8648425579 -4.02E-12
    15 OT DIIS     0.80E-01    0.2     0.00000008       -31.8648425579 -1.07E-12
    16 OT DIIS     0.80E-01    0.3     0.00000003       -31.8648425579 -4.19E-13
    17 OT DIIS     0.80E-01    0.2     0.00000001       -31.8648425579 -7.46E-14
    18 OT DIIS     0.80E-01    0.2     7.6853E-09       -31.8648425579  2.49E-14

  *** SCF run converged in    18 steps ***


  Electronic density on regular grids:        -11.9999999969        0.0000000031
  Core density on regular grids:               11.9999999997       -0.0000000003
  Total charge density on r-space grids:        0.0000000028
  Total charge density g-space grids:           0.0000000028

  Overlap energy of the core charge distribution:               0.00000000066646
  Self energy of the core charge distribution:                -82.02388525635212
  Core Hamiltonian energy:                                     23.21321704596901
  Hartree energy:                                              33.62594573715366
  Exchange-correlation energy:                                 -6.68012008538557

  Total energy:                                               -31.86484255794854

  outer SCF iter =    1 RMS gradient =   0.77E-08 energy =        -31.8648425579
  outer SCF loop converged in   1 iterations or   18 steps


  Integrated absolute spin density  :                               2.0295295894
  Ideal and single determinant S**2 :                    2.000000       2.004527

 ENERGY| Total FORCE_EVAL ( QS ) energy [a.u.]:              -31.864842557948563

 Spin 1

 Number of electrons:                                                          7
 Number of occupied orbitals:                                                  7
 Number of molecular orbitals:                                                 7

 Spin 2

 Number of electrons:                                                          5
 Number of occupied orbitals:                                                  5
 Number of molecular orbitals:                                                 5

 Number of orbital functions:                                                 26
 Number of independent orbital functions:                                     26

 Parameters for the always stable predictor-corrector (ASPC) method:

  ASPC order: 3

  B(1) =   3.000000
  B(2) =  -3.428571
  B(3) =   1.928571
  B(4) =  -0.571429
  B(5) =   0.071429

 Parameters for the always stable predictor-corrector (ASPC) method:

  ASPC order: 3

  B(1) =   3.000000
  B(2) =  -3.428571
  B(3) =   1.928571
  B(4) =  -0.571429
  B(5) =   0.071429

 Extrapolation method: ASPC


 SCF WAVEFUNCTION OPTIMIZATION

  ----------------------------------- OT ---------------------------------------
  Minimizer      : DIIS                : direct inversion
                                         in the iterative subspace
                                         using   7 DIIS vectors
                                         safer DIIS on
  Preconditioner : FULL_SINGLE_INVERSE : inversion of 
                                         H + eS - 2*(Sc)(c^T*H*c+const)(Sc)^T
  Precond_solver : DEFAULT
  stepsize       :    0.08000000                  energy_gap     :    0.08000000
  eps_taylor     :   0.10000E-15                  max_taylor     :             4
  ----------------------------------- OT ---------------------------------------

  Step     Update method      Time    Convergence         Total energy    Change
  ------------------------------------------------------------------------------
     1 OT DIIS     0.80E-01    0.7     0.00255418       -31.8643499412 -3.19E+01
     2 OT DIIS     0.80E-01    0.2     0.00204879       -31.8644963505 -1.46E-04
     3 OT DIIS     0.80E-01    0.2     0.00070082       -31.8647651519 -2.69E-04
     4 OT DIIS     0.80E-01    0.2     0.00025327       -31.8647967312 -3.16E-05
     5 OT DIIS     0.80E-01    0.3     0.00008531       -31.8648012591 -4.53E-06
     6 OT DIIS     0.80E-01    0.2     0.00004268       -31.8648017497 -4.91E-07
     7 OT DIIS     0.80E-01    0.2     0.00001618       -31.8648018570 -1.07E-07
     8 OT DIIS     0.80E-01    0.2     0.00000703       -31.8648018731 -1.61E-08
     9 OT DIIS     0.80E-01    0.2     0.00000346       -31.8648018762 -3.10E-09
    10 OT DIIS     0.80E-01    0.2     0.00000248       -31.8648018767 -4.78E-10
    11 OT DIIS     0.80E-01    0.2     0.00000090       -31.8648018771 -4.43E-10
    12 OT DIIS     0.80E-01    0.2     0.00000020       -31.8648018772 -6.20E-11
    13 OT DIIS     0.80E-01    0.2     0.00000016       -31.8648018772 -1.12E-12
    14 OT DIIS     0.80E-01    0.2     0.00000009       -31.8648018772 -1.40E-12
    15 OT DIIS     0.80E-01    0.2     0.00000006       -31.8648018772 -3.80E-13
    16 OT DIIS     0.80E-01    0.3     0.00000003       -31.8648018772 -2.66E-13
    17 OT DIIS     0.80E-01    0.2     0.00000001       -31.8648018772 -3.55E-14
    18 OT DIIS     0.80E-01    0.3     8.1795E-09       -31.8648018772 -3.55E-15

  *** SCF run converged in    18 steps ***


  Electronic density on regular grids:        -11.9999999968        0.0000000032
  Core density on regular grids:               11.9999999997       -0.0000000003
  Total charge density on r-space grids:        0.0000000029
  Total charge density g-space grids:           0.0000000029

  Overlap energy of the core charge distribution:               0.00000000081143
  Self energy of the core charge distribution:                -82.02388525635212
  Core Hamiltonian energy:                                     23.23188197483435
  Hartree energy:                                              33.61204846746201
  Exchange-correlation energy:                                 -6.68484706396560

  Total energy:                                               -31.86480187720992

  outer SCF iter =    1 RMS gradient =   0.82E-08 energy =        -31.8648018772
  outer SCF loop converged in   1 iterations or   18 steps


  Integrated absolute spin density  :                               2.0293191496
  Ideal and single determinant S**2 :                    2.000000       2.004498

 ENERGY| Total FORCE_EVAL ( QS ) energy [a.u.]:              -31.864801877209931

 Spin 1

 Number of electrons:                                                          7
 Number of occupied orbitals:                                                  7
 Number of molecular orbitals:                                                 7

 Spin 2

 Number of electrons:                                                          5
 Number of occupied orbitals:                                                  5
 Number of molecular orbitals:                                                 5

 Number of orbital functions:                                                 26
 Number of independent orbital functions:                                     26

 Parameters for the always stable predictor-corrector (ASPC) method:

  ASPC order: 3

  B(1) =   3.000000
  B(2) =  -3.428571
  B(3) =   1.928571
  B(4) =  -0.571429
  B(5) =   0.071429

 Parameters for the always stable predictor-corrector (ASPC) method:

  ASPC order: 3

  B(1) =   3.000000
  B(2) =  -3.428571
  B(3) =   1.928571
  B(4) =  -0.571429
  B(5) =   0.071429

 Extrapolation method: ASPC


 SCF WAVEFUNCTION OPTIMIZATION

  ----------------------------------- OT ---------------------------------------
  Minimizer      : DIIS                : direct inversion
                                         in the iterative subspace
                                         using   7 DIIS vectors
                                         safer DIIS on
  Preconditioner : FULL_SINGLE_INVERSE : inversion of 
                                         H + eS - 2*(Sc)(c^T*H*c+const)(Sc)^T
  Precond_solver : DEFAULT
  stepsize       :    0.08000000                  energy_gap     :    0.08000000
  eps_taylor     :   0.10000E-15                  max_taylor     :             4
  ----------------------------------- OT ---------------------------------------

  Step     Update method      Time    Convergence         Total energy    Change
  ------------------------------------------------------------------------------
     1 OT DIIS     0.80E-01    0.6     0.00292473       -31.8642577629 -3.19E+01
     2 OT DIIS     0.80E-01    0.2     0.00234084       -31.8644495703 -1.92E-04
     3 OT DIIS     0.80E-01    0.2     0.00078068       -31.8647979438 -3.48E-04
     4 OT DIIS     0.80E-01    0.2     0.00028428       -31.8648370641 -3.91E-05
     5 OT DIIS     0.80E-01    0.2     0.00009593       -31.8648425888 -5.52E-06
     6 OT DIIS     0.80E-01    0.2     0.00005620       -31.8648431349 -5.46E-07
     7 OT DIIS     0.80E-01    0.2     0.00001827       -31.8648433499 -2.15E-07
     8 OT DIIS     0.80E-01    0.3     0.00000578       -31.8648433720 -2.21E-08
     9 OT DIIS     0.80E-01    0.3     0.00000176       -31.8648433743 -2.35E-09
    10 OT DIIS     0.80E-01    0.3     0.00000137       -31.8648433744 -8.13E-11
    11 OT DIIS     0.80E-01    0.3     0.00000043       -31.8648433746 -1.41E-10
    12 OT DIIS     0.80E-01    0.3     0.00000032       -31.8648433746 -6.22E-12
    13 OT DIIS     0.80E-01    0.3     0.00000024       -31.8648433746 -3.20E-12
    14 OT DIIS     0.80E-01    0.3     0.00000015       -31.8648433746 -2.96E-12
    15 OT DIIS     0.80E-01    0.2     0.00000008       -31.8648433746 -1.51E-12
    16 OT DIIS     0.80E-01    0.2     0.00000007       -31.8648433746 -2.17E-13
    17 OT DIIS     0.80E-01    0.2     0.00000004       -31.8648433746 -2.10E-13
    18 OT DIIS     0.80E-01    0.2     0.00000002       -31.8648433746 -1.46E-13
    19 OT DIIS     0.80E-01    0.2     0.00000001       -31.8648433746 -4.26E-14
    20 OT DIIS     0.80E-01    0.2     6.8479E-09       -31.8648433746  7.11E-15

  *** SCF run converged in    20 steps ***


  Electronic density on regular grids:        -11.9999999969        0.0000000031
  Core density on regular grids:               11.9999999997       -0.0000000003
  Total charge density on r-space grids:        0.0000000028
  Total charge density g-space grids:           0.0000000028

  Overlap energy of the core charge distribution:               0.00000000066646
  Self energy of the core charge distribution:                -82.02388525635212
  Core Hamiltonian energy:                                     23.21321867516513
  Hartree energy:                                              33.62594423263047
  Exchange-correlation energy:                                 -6.68012102667798

  Total energy:                                               -31.86484337456804

  outer SCF iter =    1 RMS gradient =   0.68E-08 energy =        -31.8648433746
[...]

 Number of orbital functions:                                                 26
 Number of independent orbital functions:                                     26

 Parameters for the always stable predictor-corrector (ASPC) method:

  ASPC order: 3

  B(1) =   3.000000
  B(2) =  -3.428571
  B(3) =   1.928571
  B(4) =  -0.571429
  B(5) =   0.071429

 Parameters for the always stable predictor-corrector (ASPC) method:

  ASPC order: 3

  B(1) =   3.000000
  B(2) =  -3.428571
  B(3) =   1.928571
  B(4) =  -0.571429
  B(5) =   0.071429

 Extrapolation method: ASPC


 SCF WAVEFUNCTION OPTIMIZATION

  ----------------------------------- OT ---------------------------------------
  Minimizer      : DIIS                : direct inversion
                                         in the iterative subspace
                                         using   7 DIIS vectors
                                         safer DIIS on
  Preconditioner : FULL_SINGLE_INVERSE : inversion of 
                                         H + eS - 2*(Sc)(c^T*H*c+const)(Sc)^T
  Precond_solver : DEFAULT
  stepsize       :    0.08000000                  energy_gap     :    0.08000000
  eps_taylor     :   0.10000E-15                  max_taylor     :             4
  ----------------------------------- OT ---------------------------------------

  Step     Update method      Time    Convergence         Total energy    Change
  ------------------------------------------------------------------------------
     1 OT DIIS     0.80E-01    0.7     0.00295070       -31.8642449031 -3.19E+01
     2 OT DIIS     0.80E-01    0.2     0.00236293       -31.8644401597 -1.95E-04
     3 OT DIIS     0.80E-01    0.2     0.00080070       -31.8647955530 -3.55E-04
     4 OT DIIS     0.80E-01    0.2     0.00029291       -31.8648365712 -4.10E-05
     5 OT DIIS     0.80E-01    0.2     0.00009847       -31.8648425520 -5.98E-06
     6 OT DIIS     0.80E-01    0.2     0.00005195       -31.8648431794 -6.27E-07
     7 OT DIIS     0.80E-01    0.3     0.00001832       -31.8648433486 -1.69E-07
     8 OT DIIS     0.80E-01    0.3     0.00000586       -31.8648433712 -2.26E-08
     9 OT DIIS     0.80E-01    0.3     0.00000313       -31.8648433731 -1.91E-09
    10 OT DIIS     0.80E-01    0.3     0.00000171       -31.8648433737 -5.76E-10
    11 OT DIIS     0.80E-01    0.3     0.00000096       -31.8648433739 -1.76E-10
    12 OT DIIS     0.80E-01    0.3     0.00000023       -31.8648433739 -6.94E-11
    13 OT DIIS     0.80E-01    0.3     0.00000019       -31.8648433739 -1.41E-12
    14 OT DIIS     0.80E-01    0.2     0.00000005       -31.8648433739 -2.54E-12
    15 OT DIIS     0.80E-01    0.2     0.00000001       -31.8648433739 -1.81E-13
    16 OT DIIS     0.80E-01    0.2     0.00000001       -31.8648433739 -3.55E-15
    17 OT DIIS     0.80E-01    0.2     3.0500E-09       -31.8648433739 -1.78E-14

  *** SCF run converged in    17 steps ***


  Electronic density on regular grids:        -11.9999999969        0.0000000031
  Core density on regular grids:               11.9999999997       -0.0000000003
  Total charge density on r-space grids:        0.0000000028
  Total charge density g-space grids:           0.0000000028

  Overlap energy of the core charge distribution:               0.00000000066646
  Self energy of the core charge distribution:                -82.02388525635212
  Core Hamiltonian energy:                                     23.21321870066828
  Hartree energy:                                              33.62594420970298
  Exchange-correlation energy:                                 -6.68012102861315

  Total energy:                                               -31.86484337392755

  outer SCF iter =    1 RMS gradient =   0.31E-08 energy =        -31.8648433739
  outer SCF loop converged in   1 iterations or   17 steps


  Integrated absolute spin density  :                               2.0295300956
  Ideal and single determinant S**2 :                    2.000000       2.004526

 ENERGY| Total FORCE_EVAL ( QS ) energy [a.u.]:              -31.864843373927542

 Spin 1

 Number of electrons:                                                          7
 Number of occupied orbitals:                                                  7
 Number of molecular orbitals:                                                 7

 Spin 2

 Number of electrons:                                                          5
 Number of occupied orbitals:                                                  5
 Number of molecular orbitals:                                                 5

 Number of orbital functions:                                                 26
 Number of independent orbital functions:                                     26

 Parameters for the always stable predictor-corrector (ASPC) method:

  ASPC order: 3

  B(1) =   3.000000
  B(2) =  -3.428571
  B(3) =   1.928571
  B(4) =  -0.571429
  B(5) =   0.071429

 Parameters for the always stable predictor-corrector (ASPC) method:

  ASPC order: 3

  B(1) =   3.000000
  B(2) =  -3.428571
  B(3) =   1.928571
  B(4) =  -0.571429
  B(5) =   0.071429

 Extrapolation method: ASPC


 SCF WAVEFUNCTION OPTIMIZATION

  ----------------------------------- OT ---------------------------------------
  Minimizer      : DIIS                : direct inversion
                                         in the iterative subspace
                                         using   7 DIIS vectors
                                         safer DIIS on
  Preconditioner : FULL_SINGLE_INVERSE : inversion of 
                                         H + eS - 2*(Sc)(c^T*H*c+const)(Sc)^T
  Precond_solver : DEFAULT
  stepsize       :    0.08000000                  energy_gap     :    0.08000000
  eps_taylor     :   0.10000E-15                  max_taylor     :             4
  ----------------------------------- OT ---------------------------------------

  Step     Update method      Time    Convergence         Total energy    Change
  ------------------------------------------------------------------------------
     1 OT DIIS     0.80E-01    0.8     0.00256073       -31.8643745262 -3.19E+01
     2 OT DIIS     0.80E-01    0.2     0.00206849       -31.8645220983 -1.48E-04
     3 OT DIIS     0.80E-01    0.3     0.00075887       -31.8648025623 -2.80E-04
     4 OT DIIS     0.80E-01    0.3     0.00025365       -31.8648404217 -3.79E-05
     5 OT DIIS     0.80E-01    0.3     0.00008026       -31.8648452502 -4.83E-06
     6 OT DIIS     0.80E-01    0.2     0.00004309       -31.8648456143 -3.64E-07
     7 OT DIIS     0.80E-01    0.2     0.00001527       -31.8648457450 -1.31E-07
     8 OT DIIS     0.80E-01    0.2     0.00000495       -31.8648457618 -1.67E-08
     9 OT DIIS     0.80E-01    0.2     0.00000251       -31.8648457632 -1.45E-09
    10 OT DIIS     0.80E-01    0.2     0.00000141       -31.8648457636 -3.60E-10
    11 OT DIIS     0.80E-01    0.2     0.00000079       -31.8648457637 -1.19E-10
    12 OT DIIS     0.80E-01    0.2     0.00000020       -31.8648457637 -4.60E-11
    13 OT DIIS     0.80E-01    0.3     0.00000017       -31.8648457637 -1.07E-12
    14 OT DIIS     0.80E-01    0.3     0.00000005       -31.8648457637 -2.03E-12
    15 OT DIIS     0.80E-01    0.3     0.00000002       -31.8648457637 -1.88E-13
    16 OT DIIS     0.80E-01    0.3     0.00000001       -31.8648457637 -3.55E-15
    17 OT DIIS     0.80E-01    0.3     2.7675E-09       -31.8648457637 -3.20E-14

  *** SCF run converged in    17 steps ***


  Electronic density on regular grids:        -11.9999999969        0.0000000031
  Core density on regular grids:               11.9999999997       -0.0000000003
  Total charge density on r-space grids:        0.0000000029
  Total charge density g-space grids:           0.0000000029

  Overlap energy of the core charge distribution:               0.00000000066674
  Self energy of the core charge distribution:                -82.02388525635212
  Core Hamiltonian energy:                                     23.21326586203348
  Hartree energy:                                              33.62590843606508
  Exchange-correlation energy:                                 -6.68013480616080

  Total energy:                                               -31.86484576374761

  outer SCF iter =    1 RMS gradient =   0.28E-08 energy =        -31.8648457637
  outer SCF loop converged in   1 iterations or   17 steps


  Integrated absolute spin density  :                               2.0295302311
  Ideal and single determinant S**2 :                    2.000000       2.004527

 ENERGY| Total FORCE_EVAL ( QS ) energy [a.u.]:              -31.864845763747610

 -------------------------------------------------------------------------------
 ----                             MULTIGRID INFO                            ----
 -------------------------------------------------------------------------------
 count for grid        1:           1266          cutoff [a.u.]          170.00
 count for grid        2:            794          cutoff [a.u.]           56.67
 count for grid        3:            136          cutoff [a.u.]           18.89
 count for grid        4:             16          cutoff [a.u.]            6.30
 total gridlevel count  :           2212

 -------------------------------------------------------------------------------
 -                                                                             -
 -                           R E F E R E N C E S                               -
 -                                                                             -
 -------------------------------------------------------------------------------
 
 CP2K version 9.1, the CP2K developers group (2021).
 CP2K is freely available from https://www.cp2k.org/ .

 Kuehne,Thomas D.; Iannuzzi,Marcella; Del Ben,Mauro;
 Rybkin,Vladimir V.; Seewald,Patrick; Stein,Frederick; Laino,Teodoro;
 Khaliullin,Rustam Z.; Schuett,Ole; Schiffmann,Florian; Golze,Dorothea;
 Wilhelm,Jan; Chulkov,Sergey; Bani-Hashemian,Mohammad Hossein;
 Weber,Valery; Borstnik,Urban; Taillefumier,Mathieu;
 Jakobovits,Alice Shoshana; Lazzaro,Alfio; Pabst,Hans; Mueller,Tiziano;
 Schade,Robert; Guidon,Manuel; Andermatt,Samuel; Holmberg,Nico;
 Schenter,Gregory K.; Hehn,Anna; Bussy,Augustin; Belleflamme,Fabian;
 Tabacchi,Gloria; Gloess,Andreas; Lass,Michael; Bethune,Iain;
 Mundy,Christopher J.; Plessl,Christian; Watkins,Matt;
 VandeVondele,Joost; Krack,Matthias; Hutter,Juerg. 
 The Journal of Chemical Physics, 152 (19), (2020). 
 CP2K: An electronic structure and molecular dynamics software package -
 Quickstep: Efficient and accurate electronic structure calculations.
 https://doi.org/10.1063/5.0007045

 Schuett, Ole; Messmer, Peter; Hutter, Juerg; VandeVondele, Joost. 
 Electronic Structure Calculations on Graphics Processing Units, John
 Wiley & Sons, Ltd, 173-190 (2016). 
 GPU-Accelerated Sparse Matrix-Matrix Multiplication for
 Linear Scaling Density Functional Theory.
 https://doi.org/10.1002/9781118670712.ch8

 Heinecke, A; Henry, G; Hutchinson, M; Pabst, H. 
 Proceedings of Intl. Supercomputing Conference, 981-991 (2016). 
 LIBXSMM: Accelerating Small Matrix Multiplications
 by Runtime Code Generation.
 https://doi.org/10.1109/SC.2016.83

 Borstnik, U; VandeVondele, J; Weber, V; Hutter, J. 
 PARALLEL COMPUTING, 40 (5-6), 47-58 (2014). 
 Sparse matrix multiplication: The distributed block-compressed sparse
 row library.
 https://doi.org/10.1016/j.parco.2014.03.012

 Hutter, J; Iannuzzi, M; Schiffmann, F; VandeVondele, J. 
 WIREs Comput Mol Sci., 4 (1), 15-25 (2014). 
 CP2K: atomistic simulations of condensed matter systems.
 https://doi.org/10.1002/wcms.1159

 Kuhne, TD; Krack, M; Mohamed, FR; Parrinello, M. 
 PHYSICAL REVIEW LETTERS, 98 (6), 066401 (2007). 
 Efficient and accurate Car-Parrinello-like approach to
 Born-Oppenheimer molecular dynamics.
 https://doi.org/10.1103/PhysRevLett.98.066401

 Krack, M. 
 THEORETICAL CHEMISTRY ACCOUNTS, 114 (1-3), 145-152 (2005). 
 Pseudopotentials for H to Kr optimized for gradient-corrected
 exchange-correlation functionals.
 https://doi.org/10.1007/s00214-005-0655-y

 VandeVondele, J; Krack, M; Mohamed, F; Parrinello, M; Chassaing, T;
 Hutter, J. COMPUTER PHYSICS COMMUNICATIONS, 167 (2), 103-128 (2005). 
 QUICKSTEP: Fast and accurate density functional calculations using a
 mixed Gaussian and plane waves approach.
 https://doi.org/10.1016/j.cpc.2004.12.014

 Frigo, M; Johnson, SG. 
 PROCEEDINGS OF THE IEEE, 93 (2), 216-231 (2005). 
 The design and implementation of FFTW3.
 https://doi.org/10.1109/JPROC.2004.840301

 Kolafa, J. 
 JOURNAL OF COMPUTATIONAL CHEMISTRY, 25 (3), 335-342 (2004). 
 Time-reversible always stable predictor-corrector method for
 molecular dynamics of polarizable molecules.
 https://doi.org/10.1002/jcc.10385

 VandeVondele, J; Hutter, J. 
 JOURNAL OF CHEMICAL PHYSICS, 118 (10), 4365-4369 (2003). 
 An efficient orbital transformation method for electronic structure
 calculations.
 https://doi.org/10.1063/1.1543154

 Hartwigsen, C; Goedecker, S; Hutter, J. 
 PHYSICAL REVIEW B, 58 (7), 3641-3662 (1998). 
 Relativistic separable dual-space Gaussian pseudopotentials from H to Rn.
 https://doi.org/10.1103/PhysRevB.58.3641

 Lippert, G; Hutter, J; Parrinello, M. 
 MOLECULAR PHYSICS, 92 (3), 477-487 (1997). 
 A hybrid Gaussian and plane wave density functional scheme.
 https://doi.org/10.1080/002689797170220

 Goedecker, S; Teter, M; Hutter, J. 
 PHYSICAL REVIEW B, 54 (3), 1703-1710 (1996). 
 Separable dual-space Gaussian pseudopotentials.
 https://doi.org/10.1103/PhysRevB.54.1703


 -------------------------------------------------------------------------------
 -                                                                             -
 -                                T I M I N G                                  -
 -                                                                             -
 -------------------------------------------------------------------------------
 SUBROUTINE                       CALLS  ASD         SELF TIME        TOTAL TIME
                                MAXIMUM       AVERAGE  MAXIMUM  AVERAGE  MAXIMUM
 CP2K                                 1  1.0    0.014    0.014   75.314   75.314
 rep_env_calc_e_f                    13  2.0    0.002    0.002   75.146   75.146
 qs_forces                           13  3.0    0.001    0.001   75.144   75.144
 qs_energies                         13  4.0    0.001    0.001   73.178   73.178
 scf_env_do_scf                      13  5.0    0.001    0.001   70.242   70.242
 scf_env_do_scf_inner_loop          253  6.0    0.028    0.028   61.122   61.122
 rebuild_ks_matrix                  266  7.9    0.001    0.001   27.729   27.729
 qs_ks_build_kohn_sham_matrix       266  8.9    0.033    0.033   27.728   27.728
 qs_rho_update_rho                  266  7.0    0.002    0.002   25.881   25.881
 calculate_rho_elec                 532  8.0    3.143    3.143   25.879   25.879
 qs_ks_update_qs_env                266  7.0    0.002    0.002   25.798   25.798
 pw_transfer                       5599 11.2    0.303    0.303   24.608   24.608
 fft_wrap_pw1pw2                   5067 12.2    0.037    0.037   23.651   23.651
 fft_wrap_pw1pw2_170               1875 12.8    1.759    1.759   21.109   21.109
 density_rs2pw                      532  9.0    0.027    0.027   15.512   15.512
 fft3d_s                           5068 14.2   15.276   15.276   15.292   15.292
 qs_scf_new_mos                     253  7.0    0.001    0.001   13.756   13.756
 qs_scf_loop_do_ot                  253  8.0    0.002    0.002   13.755   13.755
 ot_scf_mini                        253  9.0    0.006    0.006   13.405   13.405
 sum_up_and_integrate               266  9.9    0.642    0.642   10.378   10.378
 integrate_v_rspace                 532 10.9    0.019    0.019    9.735    9.735
 init_scf_loop                       13  6.0    0.000    0.000    9.108    9.108
 potential_pw2rs                    532 11.9    0.172    0.172    9.056    9.056
 qs_vxc_create                      266  9.9    0.004    0.004    8.880    8.880
 xc_vxc_pw_create                   266 10.9    1.304    1.304    8.876    8.876
 dbcsr_create_new                128426 14.5    6.012    6.012    8.260    8.260
 copy_fm_to_dbcsr                   449 10.3    0.002    0.002    7.647    7.647
 dbcsr_multiply_generic           11428 12.1    0.417    0.417    7.624    7.624
 xc_rho_set_and_dset_create         266 11.9    0.014    0.014    7.571    7.571
 copy_fm_to_dbcsr_bc                449 11.3    0.602    0.602    7.469    7.469
 grid_collocate_task_list           532  9.0    7.223    7.223    7.223    7.223
 xc_functional_eval                 266 12.9    7.184    7.184    7.184    7.184
 prepare_preconditioner              13  7.0    0.000    0.000    6.949    6.949
 make_preconditioner                 26  8.0    0.000    0.000    6.949    6.949
 qs_ot_get_p                        532  9.9    0.002    0.002    6.535    6.535
 ot_mini                            253 10.0    0.002    0.002    5.929    5.929
 qs_ot_p2m_diag                      94 11.0    0.003    0.003    5.276    5.276
 cp_dbcsr_syevd                      94 12.0    0.005    0.005    5.120    5.120
 qs_ot_get_derivative               506 11.0    0.004    0.004    5.058    5.058
 pw_poisson_solve                   266  9.9    0.980    0.980    4.217    4.217
 make_full_single_inverse            26  9.0    0.001    0.001    3.480    3.480
 pw_gather_s                       2673 13.6    3.457    3.457    3.457    3.457
 arnoldi_generalized_ev              26 10.0    0.000    0.000    3.363    3.363
 make_m2s                         22856 13.1    0.214    0.214    3.325    3.325
 qs_ot_get_derivative_taylor        414 12.0    0.014    0.014    3.278    3.278
 dbcsr_add_d                      12735 12.2    0.045    0.045    3.207    3.207
 dbcsr_add_anytype                12735 13.2    1.012    1.012    3.162    3.162
 pw_scatter_s                      2394 14.9    2.893    2.893    2.893    2.893
 gev_update_data                     28 11.0    0.000    0.000    2.859    2.859
 transfer_fm_to_dbcsr                26  9.0    0.000    0.000    2.726    2.726
 init_scf_run                        13  5.0    0.001    0.001    2.551    2.551
 scf_env_initial_rho_setup           13  6.0    0.000    0.000    2.550    2.550
 pw_integral_ab                     344 10.2    2.426    2.426    2.426    2.426
 wfi_extrapolate                     13  7.0    0.002    0.002    2.319    2.319
 dbcsr_make_index_exist          128426 15.5    2.191    2.191    2.191    2.191
 pw_copy                           3510 12.4    2.131    2.131    2.131    2.131
 dbcsr_iterator_start            135261 15.3    1.933    1.933    2.017    2.017
 qs_ks_update_qs_env_forces          13  4.0    0.000    0.000    1.940    1.940
 fft_wrap_pw1pw2_60                1064 13.4    0.160    0.160    1.939    1.939
 make_images                      22856 14.1    0.545    0.545    1.722    1.722
 multiply_cannon                  11428 13.1    0.765    0.765    1.611    1.611
 pw_axpy                           2673 10.0    1.516    1.516    1.516    1.516
 -------------------------------------------------------------------------------

 The number of warnings for this run is : 0
 
 -------------------------------------------------------------------------------
  **** **** ******  **  PROGRAM ENDED AT                 2022-06-06 20:11:00.782
 ***** ** ***  *** **   PROGRAM RAN ON                                    pop-os
 **    ****   ******    PROGRAM RAN BY                             woodrowwilson
 ***** **    ** ** **   PROGRAM PROCESS ID                                  3130
  **** **  *******  **  PROGRAM STOPPED IN /home/woodrowwilson/Documents/Worksho
                                           ps/MSU-DFT-Catalysis-School/1_Gas-Pha
                                           se-Molecules/2_O2/3_Vibrational-Modes
