 DBCSR| CPU Multiplication driver                                           BLAS
 DBCSR| Multrec recursion limit                                              512
 DBCSR| Multiplication stack size                                           1000
 DBCSR| Maximum elements for images                                    UNLIMITED
 DBCSR| Multiplicative factor virtual images                                   1
 DBCSR| Use multiplication densification                                       T
 DBCSR| Multiplication size stacks                                             3
 DBCSR| Use memory pool for CPU allocation                                     F
 DBCSR| Number of 3D layers                                               SINGLE
 DBCSR| Use MPI memory allocation                                              F
 DBCSR| Use RMA algorithm                                                      F
 DBCSR| Use Communication thread                                               T
 DBCSR| Communication thread load                                             87
 DBCSR| MPI: My node id                                                        0
 DBCSR| MPI: Number of nodes                                                  40
 DBCSR| OMP: Current number of threads                                         1
 DBCSR| OMP: Max number of threads                                             1
 DBCSR| Split modifier for TAS multiplication algorithm                  1.0E+00


  **** **** ******  **  PROGRAM STARTED AT               2022-06-15 21:50:56.080
 ***** ** ***  *** **   PROGRAM STARTED ON           Orion-05-67.HPC.MsState.Edu
 **    ****   ******    PROGRAM STARTED BY                                 wnw36
 ***** **    ** ** **   PROGRAM PROCESS ID                                124865
  **** **  *******  **  PROGRAM STARTED IN /work/hpc/users/wnw36/MSU-DFT-Catalys
                                           is-School/5_NEB/1_O-Diffusion/Pt/1_re
                                           actant

 CP2K| version string:                                          CP2K version 9.1
 CP2K| source code revision number:                                  git:d8d7100
 CP2K| cp2kflags: omp libint fftw3 libxc parallel mpi3 scalapack max_contr=4 plu
 CP2K|            med2 spglib mkl check_diag libvori libbqb
 CP2K| is freely available from                            https://www.cp2k.org/
 CP2K| Program compiled at                          Mon May 23 16:32:41 CDT 2022
 CP2K| Program compiled on                         Orion-devel-1.HPC.MsState.Edu
 CP2K| Program compiled for                              Linux-x86-64-intel-hpc2
 CP2K| Data directory path                      /apps/contrib/cp2k/cp2k/9.1/data
 CP2K| Input file name                                                  cp2k.inp
 
 GLOBAL| Force Environment number                                              1
 GLOBAL| Basis set file name                                           BASIS_SET
 GLOBAL| Potential file name                                      GTH_POTENTIALS
 GLOBAL| MM Potential file name                                     MM_POTENTIAL
 GLOBAL| Coordinate file name                                      __STD_INPUT__
 GLOBAL| Method name                                                        CP2K
 GLOBAL| Project name                                                    Pt111-O
 GLOBAL| Run type                                                        GEO_OPT
 GLOBAL| FFT library                                                       FFTW3
 GLOBAL| Diagonalization library                                       ScaLAPACK
 GLOBAL| Orthonormality check for eigenvectors enabled                 5.000E-14
 GLOBAL| Matrix multiplication library                                 ScaLAPACK
 GLOBAL| All-to-all communication in single precision                          F
 GLOBAL| FFTs using library dependent lengths                                  F
 GLOBAL| Grid backend                                                       AUTO
 GLOBAL| Global print level                                               MEDIUM
 GLOBAL| MPI I/O enabled                                                       T
 GLOBAL| Total number of message passing processes                            40
 GLOBAL| Number of threads for this process                                    1
 GLOBAL| This output is from process                                           0
 GLOBAL| Stack size for threads created by OpenMP (OMP_STACKSIZE)        default
 GLOBAL| CPU model name                 Intel(R) Xeon(R) Gold 6148 CPU @ 2.40GHz
 GLOBAL| CPUID                                                              1003

 MEMORY| system memory details [Kb]
 MEMORY|                        rank 0           min           max       average
 MEMORY| MemTotal            196434476     196434476     196434476     196434476
 MEMORY| MemFree             161663552     161663552     161665412     161663939
 MEMORY| Buffers                   128           128           128           128
 MEMORY| Cached               19370344      19370344      19370344      19370344
 MEMORY| Slab                  3816024       3816024       3816024       3816024
 MEMORY| SReclaimable           593080        593080        593080        593080
 MEMORY| MemLikelyFree       181627104     181627104     181628964     181627491


 *** Fundamental physical constants (SI units) ***

 *** Literature: B. J. Mohr and B. N. Taylor,
 ***             CODATA recommended values of the fundamental physical
 ***             constants: 2006, Web Version 5.1
 ***             http://physics.nist.gov/constants

 Speed of light in vacuum [m/s]                             2.99792458000000E+08
 Magnetic constant or permeability of vacuum [N/A**2]       1.25663706143592E-06
 Electric constant or permittivity of vacuum [F/m]          8.85418781762039E-12
 Planck constant (h) [J*s]                                  6.62606896000000E-34
 Planck constant (h-bar) [J*s]                              1.05457162825177E-34
 Elementary charge [C]                                      1.60217648700000E-19
 Electron mass [kg]                                         9.10938215000000E-31
 Electron g factor [ ]                                     -2.00231930436220E+00
 Proton mass [kg]                                           1.67262163700000E-27
 Fine-structure constant                                    7.29735253760000E-03
 Rydberg constant [1/m]                                     1.09737315685270E+07
 Avogadro constant [1/mol]                                  6.02214179000000E+23
 Boltzmann constant [J/K]                                   1.38065040000000E-23
 Atomic mass unit [kg]                                      1.66053878200000E-27
 Bohr radius [m]                                            5.29177208590000E-11

 *** Conversion factors ***

 [u] -> [a.u.]                                              1.82288848426455E+03
 [Angstrom] -> [Bohr] = [a.u.]                              1.88972613288564E+00
 [a.u.] = [Bohr] -> [Angstrom]                              5.29177208590000E-01
 [a.u.] -> [s]                                              2.41888432650478E-17
 [a.u.] -> [fs]                                             2.41888432650478E-02
 [a.u.] -> [J]                                              4.35974393937059E-18
 [a.u.] -> [N]                                              8.23872205491840E-08
 [a.u.] -> [K]                                              3.15774647902944E+05
 [a.u.] -> [kJ/mol]                                         2.62549961709828E+03
 [a.u.] -> [kcal/mol]                                       6.27509468713739E+02
 [a.u.] -> [Pa]                                             2.94210107994716E+13
 [a.u.] -> [bar]                                            2.94210107994716E+08
 [a.u.] -> [atm]                                            2.90362800883016E+08
 [a.u.] -> [eV]                                             2.72113838565563E+01
 [a.u.] -> [Hz]                                             6.57968392072181E+15
 [a.u.] -> [1/cm] (wave numbers)                            2.19474631370540E+05
 [a.u./Bohr**2] -> [1/cm]                                   5.14048714338585E+03
 

 CELL_TOP| Volume [angstrom^3]:                                      1598.805915
 CELL_TOP| Vector a [angstrom    11.248     0.000     0.000   |a| =    11.248004
 CELL_TOP| Vector b [angstrom     5.624     9.741     0.000   |b| =    11.248004
 CELL_TOP| Vector c [angstrom     0.000     0.000    14.592   |c| =    14.591978
 CELL_TOP| Angle (b,c), alpha [degree]:                                90.000000
 CELL_TOP| Angle (a,c), beta  [degree]:                                90.000000
 CELL_TOP| Angle (a,b), gamma [degree]:                                60.000000
 CELL_TOP| Numerically orthorhombic:                                          NO
 
 GENERATE|  Preliminary Number of Bonds generated:                             0
 GENERATE|  Achieved consistency in connectivity generation.

 CELL| Volume [angstrom^3]:                                          1598.805915
 CELL| Vector a [angstrom]:      11.248     0.000     0.000   |a| =    11.248004
 CELL| Vector b [angstrom]:       5.624     9.741     0.000   |b| =    11.248004
 CELL| Vector c [angstrom]:       0.000     0.000    14.592   |c| =    14.591978
 CELL| Angle (b,c), alpha [degree]:                                    90.000000
 CELL| Angle (a,c), beta  [degree]:                                    90.000000
 CELL| Angle (a,b), gamma [degree]:                                    60.000000
 CELL| Numerically orthorhombic:                                              NO

 CELL_REF| Volume [angstrom^3]:                                      1598.805915
 CELL_REF| Vector a [angstrom    11.248     0.000     0.000   |a| =    11.248004
 CELL_REF| Vector b [angstrom     5.624     9.741     0.000   |b| =    11.248004
 CELL_REF| Vector c [angstrom     0.000     0.000    14.592   |c| =    14.591978
 CELL_REF| Angle (b,c), alpha [degree]:                                90.000000
 CELL_REF| Angle (a,c), beta  [degree]:                                90.000000
 CELL_REF| Angle (a,b), gamma [degree]:                                60.000000
 CELL_REF| Numerically orthorhombic:                                          NO

 *******************************************************************************
 *******************************************************************************
 **                                                                           **
 **     #####                         ##              ##                      **
 **    ##   ##            ##          ##              ##                      **
 **   ##     ##                       ##            ######                    **
 **   ##     ##  ##   ##  ##   #####  ##  ##   ####   ##    #####    #####    **
 **   ##     ##  ##   ##  ##  ##      ## ##   ##      ##   ##   ##  ##   ##   **
 **   ##  ## ##  ##   ##  ##  ##      ####     ###    ##   ######   ######    **
 **    ##  ###   ##   ##  ##  ##      ## ##      ##   ##   ##       ##        **
 **     #######   #####   ##   #####  ##  ##  ####    ##    #####   ##        **
 **           ##                                                    ##        **
 **                                                                           **
 **                                                ... make the atoms dance   **
 **                                                                           **
 **            Copyright (C) by CP2K developers group (2000-2021)             **
 **                      J. Chem. Phys. 152, 194103 (2020)                    **
 **                                                                           **
 *******************************************************************************

 DFT| Spin unrestricted (spin-polarized) Kohn-Sham calculation               UKS
 DFT| Multiplicity                                                             2
 DFT| Number of spin states                                                    2
 DFT| Charge                                                                   0
 DFT| Self-interaction correction (SIC)                                       NO
 DFT| Cutoffs: density                                              1.000000E-10
 DFT|          gradient                                             1.000000E-10
 DFT|          tau                                                  1.000000E-10
 DFT|          cutoff_smoothing_range                               0.000000E+00
 DFT| XC density smoothing                                                  NONE
 DFT| XC derivatives                                                          PW
 FUNCTIONAL| ROUTINE=NEW
 FUNCTIONAL| PADE:
 FUNCTIONAL| S. Goedecker, M. Teter and J. Hutter, Phys. Rev. B 54, 1703 (1996) 

 QS| Method:                                                                 GPW
 QS| Density plane wave grid type                        NON-SPHERICAL FULLSPACE
 QS| Number of grid levels:                                                    4
 QS| Density cutoff [a.u.]:                                                170.0
 QS| Multi grid cutoff [a.u.]: 1) grid level                               170.0
 QS|                           2) grid level                                56.7
 QS|                           3) grid level                                18.9
 QS|                           4) grid level                                 6.3
 QS| Grid level progression factor:                                          3.0
 QS| Relative density cutoff [a.u.]:                                        20.0
 QS| Interaction thresholds: eps_pgf_orb:                                1.0E-05
 QS|                         eps_filter_matrix:                          0.0E+00
 QS|                         eps_core_charge:                            1.0E-12
 QS|                         eps_rho_gspace:                             1.0E-10
 QS|                         eps_rho_rspace:                             1.0E-10
 QS|                         eps_gvg_rspace:                             1.0E-05
 QS|                         eps_ppl:                                    1.0E-02
 QS|                         eps_ppnl:                                   1.0E-07


 ATOMIC KIND INFORMATION

  1. Atomic kind: Pt                                    Number of atoms:      48

     Orbital Basis Set                                              DZV-GTH-PADE

       Number of orbital shell sets:                                           1
       Number of orbital shells:                                               7
       Number of primitive Cartesian functions:                                5
       Number of Cartesian basis functions:                                   21
       Number of spherical basis functions:                                   19
       Norm type:                                                              2

       Normalised Cartesian orbitals:

                        Set   Shell   Orbital            Exponent    Coefficient

                          1       1    5s                3.853990       1.284223
                                                         1.761529      -0.955061
                                                         0.798476      -0.354894
                                                         0.306400      -0.012294
                                                         0.090551       0.000118

                          1       2    6s                3.853990      -0.206176
                                                         1.761529       0.152739
                                                         0.798476       0.365439
                                                         0.306400      -0.073141
                                                         0.090551      -0.118192

                          1       3    7s                3.853990       0.000000
                                                         1.761529       0.000000
                                                         0.798476       0.000000
                                                         0.306400       0.000000
                                                         0.090551       0.117647

                          1       4    6px               3.853990       0.779848
                                                         1.761529      -1.320402
                                                         0.798476      -0.635344
                                                         0.306400      -0.029940
                                                         0.090551       0.000021
                          1       4    6py               3.853990       0.779848
                                                         1.761529      -1.320402
                                                         0.798476      -0.635344
                                                         0.306400      -0.029940
                                                         0.090551       0.000021
                          1       4    6pz               3.853990       0.779848
                                                         1.761529      -1.320402
                                                         0.798476      -0.635344
                                                         0.306400      -0.029940
                                                         0.090551       0.000021

                          1       5    7px               3.853990       0.000000
                                                         1.761529       0.000000
                                                         0.798476       0.000000
                                                         0.306400       0.324938
                                                         0.090551       0.000000
                          1       5    7py               3.853990       0.000000
                                                         1.761529       0.000000
                                                         0.798476       0.000000
                                                         0.306400       0.324938
                                                         0.090551       0.000000
                          1       5    7pz               3.853990       0.000000
                                                         1.761529       0.000000
                                                         0.798476       0.000000
                                                         0.306400       0.324938
                                                         0.090551       0.000000

                          1       6    7dx2              3.853990       1.322239
                                                         1.761529      -1.321302
                                                         0.798476      -0.473688
                                                         0.306400      -0.086328
                                                         0.090551      -0.003392
                          1       6    7dxy              3.853990       2.290185
                                                         1.761529      -2.288562
                                                         0.798476      -0.820452
                                                         0.306400      -0.149524
                                                         0.090551      -0.005875
                          1       6    7dxz              3.853990       2.290185
                                                         1.761529      -2.288562
                                                         0.798476      -0.820452
                                                         0.306400      -0.149524
                                                         0.090551      -0.005875
                          1       6    7dy2              3.853990       1.322239
                                                         1.761529      -1.321302
                                                         0.798476      -0.473688
                                                         0.306400      -0.086328
                                                         0.090551      -0.003392
                          1       6    7dyz              3.853990       2.290185
                                                         1.761529      -2.288562
                                                         0.798476      -0.820452
                                                         0.306400      -0.149524
                                                         0.090551      -0.005875
                          1       6    7dz2              3.853990       1.322239
                                                         1.761529      -1.321302
                                                         0.798476      -0.473688
                                                         0.306400      -0.086328
                                                         0.090551      -0.003392

                          1       7    8dx2              3.853990       0.000000
                                                         1.761529       0.000000
                                                         0.798476       1.110113
                                                         0.306400       0.000000
                                                         0.090551       0.000000
                          1       7    8dxy              3.853990       0.000000
                                                         1.761529       0.000000
                                                         0.798476       1.922772
                                                         0.306400       0.000000
                                                         0.090551       0.000000
                          1       7    8dxz              3.853990       0.000000
                                                         1.761529       0.000000
                                                         0.798476       1.922772
                                                         0.306400       0.000000
                                                         0.090551       0.000000
                          1       7    8dy2              3.853990       0.000000
                                                         1.761529       0.000000
                                                         0.798476       1.110113
                                                         0.306400       0.000000
                                                         0.090551       0.000000
                          1       7    8dyz              3.853990       0.000000
                                                         1.761529       0.000000
                                                         0.798476       1.922772
                                                         0.306400       0.000000
                                                         0.090551       0.000000
                          1       7    8dz2              3.853990       0.000000
                                                         1.761529       0.000000
                                                         0.798476       1.110113
                                                         0.306400       0.000000
                                                         0.090551       0.000000

       Atomic covalent radius [Angstrom]:                                  1.300

       Atomic van der Waals radius [Angstrom]:                             1.750

     GTH Potential information for                                  GTH-PADE-q18

       Description:                       Goedecker-Teter-Hutter pseudopotential
                                           Goedecker et al., PRB 54, 1703 (1996)
                                          Hartwigsen et al., PRB 58, 3641 (1998)
                                                      Krack, TCA 114, 145 (2005)

       Gaussian exponent of the core charge distribution:               2.000000
       Electronic configuration (s p d ...):                           3   6   9

       Parameters of the local part of the GTH pseudopotential:

                          rloc        C1          C2          C3          C4
                        0.500000    5.445832    1.156382

       Parameters of the non-local part of the GTH pseudopotential:

                   l      r(l)      h(i,j,l)

                   0    0.409942    2.994366    2.884897    1.035209
                                    2.884897   -7.448772   -2.672899
                                    1.035209   -2.672899    4.243095
                   1    0.398652   -0.225181    1.596063
                                    1.596063   -3.776974
                   2    0.367964    0.632067    2.537907
                                    2.537907   -5.755431

  2. Atomic kind: H                                     Number of atoms:       1

     Orbital Basis Set                                             DZVP-GTH-PADE

       Number of orbital shell sets:                                           2
       Number of orbital shells:                                               3
       Number of primitive Cartesian functions:                                5
       Number of Cartesian basis functions:                                    5
       Number of spherical basis functions:                                    5
       Norm type:                                                              2

       Normalised Cartesian orbitals:

                        Set   Shell   Orbital            Exponent    Coefficient

                          1       1    1s                8.374435      -0.083834
                                                         1.805868      -0.155208
                                                         0.485253      -0.104875
                                                         0.165824      -0.128813

                          1       2    2s                8.374435       0.000000
                                                         1.805868       0.000000
                                                         0.485253       0.000000
                                                         0.165824       0.185202

                          2       1    2px               0.700000       0.912668
                          2       1    2py               0.700000       0.912668
                          2       1    2pz               0.700000       0.912668

       Atomic covalent radius [Angstrom]:                                  0.320

       Atomic van der Waals radius [Angstrom]:                             1.090

     GTH Potential information for                                   GTH-PADE-q1

       Description:                       Goedecker-Teter-Hutter pseudopotential
                                           Goedecker et al., PRB 54, 1703 (1996)
                                          Hartwigsen et al., PRB 58, 3641 (1998)
                                                      Krack, TCA 114, 145 (2005)

       Gaussian exponent of the core charge distribution:              12.500000
       Electronic configuration (s p d ...):                                   1

       Parameters of the local part of the GTH pseudopotential:

                          rloc        C1          C2          C3          C4
                        0.200000   -4.180237    0.725075


 MOLECULE KIND INFORMATION


 All atoms are their own molecule, skipping detailed information


 TOTAL NUMBERS AND MAXIMUM NUMBERS

  Total number of            - Atomic kinds:                                   2
                             - Atoms:                                         49
                             - Shell sets:                                    50
                             - Shells:                                       339
                             - Primitive Cartesian functions:                245
                             - Cartesian basis functions:                   1013
                             - Spherical basis functions:                    917

  Maximum angular momentum of- Orbital basis functions:                        2
                             - Local part of the GTH pseudopotential:          2
                             - Non-local part of the GTH pseudopotential:      4


 MODULE QUICKSTEP:  ATOMIC COORDINATES IN angstrom

 Atom  Kind  Element       X           Y           Z          Z(eff)       Mass
    1   1 Pt  78       0.000000    0.000000    5.000000      18.0000    195.0840
    2   1 Pt  78       1.406001    2.435264    5.000000      18.0000    195.0840
    3   1 Pt  78       2.812001    0.000000    5.000000      18.0000    195.0840
    4   1 Pt  78       4.218002    2.435264    5.000000      18.0000    195.0840
    5   1 Pt  78       2.812001    4.870529    5.000000      18.0000    195.0840
    6   1 Pt  78       4.218002    7.305793    5.000000      18.0000    195.0840
    7   1 Pt  78       5.624002    4.870529    5.000000      18.0000    195.0840
    8   1 Pt  78       7.030003    7.305793    5.000000      18.0000    195.0840
    9   1 Pt  78       5.624002    0.000000    5.000000      18.0000    195.0840
   10   1 Pt  78       7.030003    2.435264    5.000000      18.0000    195.0840
   11   1 Pt  78       8.436003    0.000000    5.000000      18.0000    195.0840
   12   1 Pt  78       9.842004    2.435264    5.000000      18.0000    195.0840
   13   1 Pt  78       8.436003    4.870529    5.000000      18.0000    195.0840
   14   1 Pt  78       9.842004    7.305793    5.000000      18.0000    195.0840
   15   1 Pt  78      11.248004    4.870529    5.000000      18.0000    195.0840
   16   1 Pt  78      12.654005    7.305793    5.000000      18.0000    195.0840
   17   1 Pt  78       5.625854    3.247176    7.357162      18.0000    195.0840
   18   1 Pt  78       4.215276    0.810636    7.346397      18.0000    195.0840
   19   1 Pt  78       2.811966    3.243452    7.342093      18.0000    195.0840
   20   1 Pt  78       8.439564    8.114441    7.358316      18.0000    195.0840
   21   1 Pt  78       7.018862    5.690826    7.299886      18.0000    195.0840
   22   1 Pt  78       5.625828    8.120652    7.317148      18.0000    195.0840
   23   1 Pt  78      11.248316    3.246058    7.361604      18.0000    195.0840
   24   1 Pt  78       9.849420    0.809323    7.316119      18.0000    195.0840
   25   1 Pt  78       8.435071    3.240992    7.297948      18.0000    195.0840
   26   1 Pt  78      14.058304    8.119279    7.313932      18.0000    195.0840
   27   1 Pt  78      12.660922    5.677520    7.315423      18.0000    195.0840
   28   1 Pt  78      11.243828    8.126181    7.316011      18.0000    195.0840
   29   1 Pt  78       1.408200    0.814646    7.341604      18.0000    195.0840
   30   1 Pt  78       4.214866    5.680905    7.317888      18.0000    195.0840
   31   1 Pt  78       7.023158    0.808795    7.315438      18.0000    195.0840
   32   1 Pt  78       9.849050    5.690653    7.296863      18.0000    195.0840
   33   1 Pt  78       2.814821    1.612539    9.687197      18.0000    195.0840
   34   1 Pt  78       4.189758    4.043938    9.664047      18.0000    195.0840
   35   1 Pt  78       5.603067    1.592396    9.667254      18.0000    195.0840
   36   1 Pt  78       6.960179    4.013531    9.559041      18.0000    195.0840
   37   1 Pt  78       5.581875    6.510108    9.610367      18.0000    195.0840
   38   1 Pt  78       7.023406    8.952553    9.667457      18.0000    195.0840
   39   1 Pt  78       8.437325    6.577740    9.559577      18.0000    195.0840
   40   1 Pt  78       9.850255    8.953627    9.667626      18.0000    195.0840
   41   1 Pt  78       8.436227    1.568504    9.604424      18.0000    195.0840
   42   1 Pt  78       9.915701    4.009627    9.556217      18.0000    195.0840
   43   1 Pt  78      11.266892    1.595534    9.665252      18.0000    195.0840
   44   1 Pt  78      12.680537    4.043859    9.659619      18.0000    195.0840
   45   1 Pt  78      11.290047    6.511150    9.602763      18.0000    195.0840
   46   1 Pt  78      12.660577    8.918961    9.629893      18.0000    195.0840
   47   1 Pt  78      14.061059    6.497827    9.633656      18.0000    195.0840
   48   1 Pt  78      15.457910    8.918225    9.630808      18.0000    195.0840
   49   2 H    1       8.432559    4.866255   10.751246       1.0000      1.0079




 SCF PARAMETERS         Density guess:                                    ATOMIC
                        --------------------------------------------------------
                        max_scf:                                              50
                        max_scf_history:                                       0
                        max_diis:                                              4
                        --------------------------------------------------------
                        eps_scf:                                        1.00E-05
                        eps_scf_history:                                0.00E+00
                        eps_diis:                                       1.00E-01
                        eps_eigval:                                     1.00E-05
                        --------------------------------------------------------
                        level_shift [a.u.]:                                 0.00
                        --------------------------------------------------------
                        Outer loop SCF in use 
                        No variables optimised in outer loop
                        eps_scf                                         1.00E-05
                        max_scf                                               50
                        No outer loop optimization
                        step_size                                       5.00E-01

 PW_GRID| Information for grid number                                          1
 PW_GRID| Grid distributed over                                    40 processors
 PW_GRID| Real space group dimensions                                    40    1
 PW_GRID| the grid is blocked:                                                NO
 PW_GRID| Cutoff [a.u.]                                                    170.0
 PW_GRID| spherical cutoff:                                                   NO
 PW_GRID|   Bounds   1            -62      62                Points:         125
 PW_GRID|   Bounds   2            -62      62                Points:         125
 PW_GRID|   Bounds   3            -81      80                Points:         162
 PW_GRID| Volume element (a.u.^3)  0.4262E-02     Volume (a.u.^3)     10789.2772
 PW_GRID| Grid span                                                    FULLSPACE
 PW_GRID|   Distribution                         Average         Max         Min
 PW_GRID|   G-Vectors                            63281.2       63375       63250
 PW_GRID|   G-Rays                                 506.2         507         506
 PW_GRID|   Real Space Points                    63281.2       81000       60750

 PW_GRID| Information for grid number                                          2
 PW_GRID| Number of the reference grid                                         1
 PW_GRID| Grid distributed over                                    40 processors
 PW_GRID| Real space group dimensions                                    40    1
 PW_GRID| the grid is blocked:                                                NO
 PW_GRID| Cutoff [a.u.]                                                     56.7
 PW_GRID| spherical cutoff:                                                   NO
 PW_GRID|   Bounds   1            -37      37                Points:          75
 PW_GRID|   Bounds   2            -37      37                Points:          75
 PW_GRID|   Bounds   3            -48      47                Points:          96
 PW_GRID| Volume element (a.u.^3)  0.1998E-01     Volume (a.u.^3)     10789.2772
 PW_GRID| Grid span                                                    FULLSPACE
 PW_GRID|   Distribution                         Average         Max         Min
 PW_GRID|   G-Vectors                            13500.0       13650       13275
 PW_GRID|   G-Rays                                 180.0         182         177
 PW_GRID|   Real Space Points                    13500.0       14400        7200

 PW_GRID| Information for grid number                                          3
 PW_GRID| Number of the reference grid                                         1
 PW_GRID| Grid distributed over                                    40 processors
 PW_GRID| Real space group dimensions                                    40    1
 PW_GRID| the grid is blocked:                                                NO
 PW_GRID| Cutoff [a.u.]                                                     18.9
 PW_GRID| spherical cutoff:                                                   NO
 PW_GRID|   Bounds   1            -22      22                Points:          45
 PW_GRID|   Bounds   2            -22      22                Points:          45
 PW_GRID|   Bounds   3            -27      26                Points:          54
 PW_GRID| Volume element (a.u.^3)  0.9867E-01     Volume (a.u.^3)     10789.2772
 PW_GRID| Grid span                                                    FULLSPACE
 PW_GRID|   Distribution                         Average         Max         Min
 PW_GRID|   G-Vectors                             2733.8        2925        2610
 PW_GRID|   G-Rays                                  60.8          65          58
 PW_GRID|   Real Space Points                     2733.8        4860        2430

 PW_GRID| Information for grid number                                          4
 PW_GRID| Number of the reference grid                                         1
 PW_GRID| Grid distributed over                                    40 processors
 PW_GRID| Real space group dimensions                                     5    8
 PW_GRID| the grid is blocked:                                                NO
 PW_GRID| Cutoff [a.u.]                                                      6.3
 PW_GRID| spherical cutoff:                                                   NO
 PW_GRID|   Bounds   1            -12      12                Points:          25
 PW_GRID|   Bounds   2            -12      12                Points:          25
 PW_GRID|   Bounds   3            -16      15                Points:          32
 PW_GRID| Volume element (a.u.^3)  0.5395         Volume (a.u.^3)     10789.2772
 PW_GRID| Grid span                                                    FULLSPACE
 PW_GRID|   Distribution                         Average         Max         Min
 PW_GRID|   G-Vectors                              500.0         575         425
 PW_GRID|   G-Rays                                  20.0          23          17
 PW_GRID|   Real Space Points                      500.0         640         480

 POISSON| Solver                                                        PERIODIC
 POISSON| Periodicity                                                        XYZ

 RS_GRID| Information for grid number                                          1
 RS_GRID|   Bounds   1            -62      62                Points:         125
 RS_GRID|   Bounds   2            -62      62                Points:         125
 RS_GRID|   Bounds   3            -81      80                Points:         162
 RS_GRID| Real space distribution over                                  5 groups
 RS_GRID| Real space distribution along direction                              2
 RS_GRID| Border size                                                         36
 RS_GRID| Real space distribution over                                  8 groups
 RS_GRID| Real space distribution along direction                              3
 RS_GRID| Border size                                                         36
 RS_GRID|   Distribution                         Average         Max         Min
 RS_GRID|   Planes                                  97.0          97          97
 RS_GRID|   Distribution                         Average         Max         Min
 RS_GRID|   Planes                                  92.2          93          92

 RS_GRID| Information for grid number                                          2
 RS_GRID|   Bounds   1            -37      37                Points:          75
 RS_GRID|   Bounds   2            -37      37                Points:          75
 RS_GRID|   Bounds   3            -48      47                Points:          96
 RS_GRID| Real space fully replicated
 RS_GRID| Group size                                                           1

 RS_GRID| Information for grid number                                          3
 RS_GRID|   Bounds   1            -22      22                Points:          45
 RS_GRID|   Bounds   2            -22      22                Points:          45
 RS_GRID|   Bounds   3            -27      26                Points:          54
 RS_GRID| Real space fully replicated
 RS_GRID| Group size                                                           1

 RS_GRID| Information for grid number                                          4
 RS_GRID|   Bounds   1            -12      12                Points:          25
 RS_GRID|   Bounds   2            -12      12                Points:          25
 RS_GRID|   Bounds   3            -16      15                Points:          32
 RS_GRID| Real space fully replicated
 RS_GRID| Group size                                                           1

 *******************************************************************************
 ***                     STARTING GEOMETRY OPTIMIZATION                      ***
 ***                                 L-BFGS                                  ***
 *******************************************************************************

 --------------------------
 OPTIMIZATION STEP:      1
 --------------------------

 Spin 1

 Number of electrons:                                                        433
 Number of occupied orbitals:                                                433
 Number of molecular orbitals:                                               433

 Spin 2

 Number of electrons:                                                        432
 Number of occupied orbitals:                                                432
 Number of molecular orbitals:                                               432

 Number of orbital functions:                                                917
 Number of independent orbital functions:                                    917

 Extrapolation method: initial_guess

 Atomic guess: The first density matrix is obtained in terms of atomic orbitals
               and electronic configurations assigned to each atomic kind

 Guess for atomic kind: Pt

 Electronic structure
    Total number of core electrons                                         60.00
    Total number of valence electrons                                      18.00
    Total number of electrons                                              78.00
    Multiplicity                                                   not specified
    S   [  2.00  2.00  2.00  2.00] 2.00  1.00
    P   [  6.00  6.00  6.00] 6.00
    D   [ 10.00 10.00] 9.00
    F   [ 14.00]
 

 *******************************************************************************
                  Iteration          Convergence                     Energy [au]
 *******************************************************************************
                          1         1.01375                    -120.700954046978
                          2        0.457918                    -120.743638695117
                          3        0.873958E-02                -120.758010725686
                          4        0.990305E-05                -120.758015568606
                          5        0.211396E-07                -120.758015568614

 Energy components [Hartree]           Total Energy ::         -120.758015568614
                                        Band Energy ::          -21.973056227222
                                     Kinetic Energy ::           38.435033875918
                                   Potential Energy ::         -159.193049444532
                                      Virial (-V/T) ::            4.141873530240
                                        Core Energy ::         -211.719522036493
                                          XC Energy ::          -11.388375429335
                                     Coulomb Energy ::          102.349881897214
                       Total Pseudopotential Energy ::         -250.270908227561
                       Local Pseudopotential Energy ::         -236.202399898941
                    Nonlocal Pseudopotential Energy ::          -14.068508328620
                                        Confinement ::            1.163523151506

 Orbital energies  State     L     Occupation   Energy[a.u.]          Energy[eV]

                       1     0          2.000      -3.733489         -101.593414
                       2     0          1.000      -0.191928           -5.222627
 
                       1     1          6.000      -2.062427          -56.121506
 
                       1     2          9.000      -0.215509           -5.864308
 

 Total Electron Density at R=0:                                         0.018343

 Guess for atomic kind: H

 Electronic structure
    Total number of core electrons                                          0.00
    Total number of valence electrons                                       1.00
    Total number of electrons                                               1.00
    Multiplicity                                                   not specified
    S      1.00
 

 *******************************************************************************
                  Iteration          Convergence                     Energy [au]
 *******************************************************************************
                          1        0.316011E-02                  -0.422390558413
                          2        0.333152E-03                  -0.422399635530
                          3        0.114302E-06                  -0.422399737491

 Energy components [Hartree]           Total Energy ::           -0.422399737491
                                        Band Energy ::           -0.193019372217
                                     Kinetic Energy ::            0.475009752129
                                   Potential Energy ::           -0.897409489620
                                      Virial (-V/T) ::            1.889244348347
                                        Core Energy ::           -0.478923189740
                                          XC Energy ::           -0.248206713182
                                     Coulomb Energy ::            0.304730165431
                       Total Pseudopotential Energy ::           -0.971460622099
                       Local Pseudopotential Energy ::           -0.971460622099
                    Nonlocal Pseudopotential Energy ::            0.000000000000
                                        Confinement ::            0.175276802303

 Orbital energies  State     L     Occupation   Energy[a.u.]          Energy[eV]

                       1     0          1.000      -0.193019           -5.252324
 

 Total Electron Density at R=0:                                         0.237353

 Spin 1
 Re-scaling the density matrix to get the right number of electrons for spin 1
                  # Electrons              Trace(P)               Scaling factor
                          433               432.500                        1.001

 Spin 2
 Re-scaling the density matrix to get the right number of electrons for spin 2
                  # Electrons              Trace(P)               Scaling factor
                          432               432.500                        0.999


 SCF WAVEFUNCTION OPTIMIZATION

  ----------------------------------- OT ---------------------------------------
  Minimizer      : DIIS                : direct inversion
                                         in the iterative subspace
                                         using   7 DIIS vectors
                                         safer DIIS on
  Preconditioner : FULL_SINGLE_INVERSE : inversion of 
                                         H + eS - 2*(Sc)(c^T*H*c+const)(Sc)^T
  Precond_solver : DEFAULT
  stepsize       :    0.08000000                  energy_gap     :    0.08000000
  eps_taylor     :   0.10000E-15                  max_taylor     :             4
  ----------------------------------- OT ---------------------------------------

  Step     Update method      Time    Convergence         Total energy    Change
  ------------------------------------------------------------------------------
     1 OT DIIS     0.80E-01    0.8     0.01962585     -5757.8365305482 -5.76E+03
     2 OT DIIS     0.80E-01    0.9     0.01494781     -5779.4750514128 -2.16E+01
     3 OT DIIS     0.80E-01    0.9     0.00787294     -5800.7572516183 -2.13E+01
     4 OT DIIS     0.80E-01    0.9     0.00734934     -5801.3413518270 -5.84E-01
     5 OT DIIS     0.80E-01    0.9     0.00300268     -5807.0761118412 -5.73E+00
     6 OT DIIS     0.80E-01    0.9     0.00222602     -5808.1137244307 -1.04E+00
     7 OT DIIS     0.80E-01    0.9     0.00174035     -5808.9237680264 -8.10E-01
     8 OT DIIS     0.80E-01    0.9     0.00157391     -5809.3924848061 -4.69E-01
     9 OT DIIS     0.80E-01    0.9     0.00139746     -5809.9948472325 -6.02E-01
    10 OT DIIS     0.80E-01    0.9     0.00121417     -5810.9302804583 -9.35E-01
    11 OT DIIS     0.80E-01    0.9     0.00100360     -5811.4871636966 -5.57E-01
    12 OT DIIS     0.80E-01    0.9     0.00085851     -5811.9622124202 -4.75E-01
    13 OT DIIS     0.80E-01    0.9     0.00078250     -5812.2459228675 -2.84E-01
    14 OT DIIS     0.80E-01    0.9     0.00070595     -5812.5205385451 -2.75E-01
    15 OT DIIS     0.80E-01    0.9     0.00064917     -5812.6935478009 -1.73E-01
    16 OT DIIS     0.80E-01    0.9     0.00058636     -5812.9316982571 -2.38E-01
    17 OT DIIS     0.80E-01    0.9     0.00054024     -5813.0853832449 -1.54E-01
    18 OT DIIS     0.80E-01    0.9     0.00049192     -5813.2520893613 -1.67E-01
    19 OT DIIS     0.80E-01    0.9     0.00043928     -5813.3976184073 -1.46E-01
    20 OT DIIS     0.80E-01    0.9     0.00043041     -5813.4843583985 -8.67E-02
    21 OT DIIS     0.80E-01    0.9     0.00036249     -5813.5607149057 -7.64E-02
    22 OT DIIS     0.80E-01    0.9     0.00033661     -5813.6365211869 -7.58E-02
    23 OT DIIS     0.80E-01    0.9     0.00031993     -5813.6786474409 -4.21E-02
    24 OT DIIS     0.80E-01    0.9     0.00030143     -5813.7439586066 -6.53E-02
    25 OT DIIS     0.80E-01    0.9     0.00028515     -5813.7844713282 -4.05E-02
    26 OT DIIS     0.80E-01    0.9     0.00024634     -5813.8737643379 -8.93E-02
    27 OT DIIS     0.80E-01    0.9     0.00023834     -5813.9160086748 -4.22E-02
    28 OT DIIS     0.80E-01    0.9     0.00023474     -5813.9332111946 -1.72E-02
    29 OT DIIS     0.80E-01    0.9     0.00020810     -5813.9808692876 -4.77E-02
    30 OT DIIS     0.80E-01    0.9     0.00020844     -5814.0157319094 -3.49E-02
    31 OT DIIS     0.80E-01    0.9     0.00018406     -5814.0345907333 -1.89E-02
    32 OT DIIS     0.80E-01    0.9     0.00018484     -5814.0506815658 -1.61E-02
    33 OT DIIS     0.80E-01    0.9     0.00017346     -5814.0579923775 -7.31E-03
    34 OT DIIS     0.80E-01    0.9     0.00017393     -5814.0949682981 -3.70E-02
    35 OT DIIS     0.80E-01    0.9     0.00016012     -5814.0989993674 -4.03E-03
    36 OT DIIS     0.80E-01    0.9     0.00014794     -5814.1107907470 -1.18E-02
    37 OT DIIS     0.80E-01    0.9     0.00014974     -5814.1341945937 -2.34E-02
    38 OT DIIS     0.80E-01    0.9     0.00013393     -5814.1469500004 -1.28E-02
    39 OT DIIS     0.80E-01    0.9     0.00012930     -5814.1584184278 -1.15E-02
    40 OT DIIS     0.80E-01    0.9     0.00012564     -5814.1778759403 -1.95E-02
    41 OT DIIS     0.80E-01    0.9     0.00018242     -5814.1857866959 -7.91E-03
    42 OT DIIS     0.80E-01    0.9     0.00011403     -5814.1963010570 -1.05E-02
    43 OT DIIS     0.80E-01    0.9     0.00011928     -5814.2026750012 -6.37E-03
    44 OT DIIS     0.80E-01    0.9     0.00011129     -5814.2057717654 -3.10E-03
    45 OT DIIS     0.80E-01    0.9     0.00010419     -5814.2179949750 -1.22E-02
    46 OT DIIS     0.80E-01    0.9     0.00009629     -5814.2331700184 -1.52E-02
    47 OT DIIS     0.80E-01    0.9     0.00009452     -5814.2362118454 -3.04E-03
    48 OT DIIS     0.80E-01    0.9     0.00009177     -5814.2407640453 -4.55E-03
    49 OT SD       0.80E-01    0.9     0.00008950     -5814.2446733590 -3.91E-03
    50 OT DIIS     0.80E-01    0.9     0.00008843     -5814.2451781131 -5.05E-04

  Leaving inner SCF loop after reaching    50 steps.


  Electronic density on regular grids:       -864.9999998639        0.0000001361
  Core density on regular grids:              864.9999999462       -0.0000000538
  Total charge density on r-space grids:        0.0000000823
  Total charge density g-space grids:           0.0000000823

  Overlap energy of the core charge distribution:               0.00000000094106
  Self energy of the core charge distribution:              -8775.68687729357589
  Core Hamiltonian energy:                                   2006.30010702517120
  Hartree energy:                                            1509.76559793387014
  Exchange-correlation energy:                               -554.62400577955236

  Total energy:                                             -5814.24517811314672

  outer SCF iter =    1 RMS gradient =   0.88E-04 energy =      -5814.2451781131

  ----------------------------------- OT ---------------------------------------
  Minimizer      : DIIS                : direct inversion
                                         in the iterative subspace
                                         using   7 DIIS vectors
                                         safer DIIS on
  Preconditioner : FULL_SINGLE_INVERSE : inversion of 
                                         H + eS - 2*(Sc)(c^T*H*c+const)(Sc)^T
  Precond_solver : DEFAULT
  stepsize       :    0.08000000                  energy_gap     :    0.08000000
  eps_taylor     :   0.10000E-15                  max_taylor     :             4
  ----------------------------------- OT ---------------------------------------

  Step     Update method      Time    Convergence         Total energy    Change
  ------------------------------------------------------------------------------
     1 OT DIIS     0.80E-01    1.8     0.00033376     -5814.2563964602 -1.12E-02
     2 OT DIIS     0.80E-01    0.8     0.00038827     -5814.2621492673 -5.75E-03
     3 OT DIIS     0.80E-01    0.8     0.00031418     -5814.2645294459 -2.38E-03
     4 OT DIIS     0.80E-01    0.8     0.00029886     -5814.2690469288 -4.52E-03
     5 OT DIIS     0.80E-01    0.9     0.00031345     -5814.2877361792 -1.87E-02
     6 OT DIIS     0.80E-01    0.9     0.00025881     -5814.3059797618 -1.82E-02
     7 OT DIIS     0.80E-01    0.9     0.00022657     -5814.3183078187 -1.23E-02
     8 OT DIIS     0.80E-01    0.9     0.00022746     -5814.3247573243 -6.45E-03
     9 OT DIIS     0.80E-01    0.9     0.00021061     -5814.3305278346 -5.77E-03
    10 OT DIIS     0.80E-01    0.9     0.00020406     -5814.3404703750 -9.94E-03
    11 OT DIIS     0.80E-01    0.9     0.00023392     -5814.3487718147 -8.30E-03
    12 OT DIIS     0.80E-01    0.9     0.00018456     -5814.3545652439 -5.79E-03
    13 OT DIIS     0.80E-01    0.9     0.00016533     -5814.3603465248 -5.78E-03
    14 OT DIIS     0.80E-01    0.9     0.00015279     -5814.3632096346 -2.86E-03
    15 OT DIIS     0.80E-01    0.9     0.00014958     -5814.3664981317 -3.29E-03
    16 OT DIIS     0.80E-01    0.9     0.00015416     -5814.3705924770 -4.09E-03
    17 OT DIIS     0.80E-01    0.9     0.00014605     -5814.3736745356 -3.08E-03
    18 OT DIIS     0.80E-01    0.9     0.00013854     -5814.3787371556 -5.06E-03
    19 OT DIIS     0.80E-01    0.9     0.00013648     -5814.3819250278 -3.19E-03
    20 OT DIIS     0.80E-01    0.9     0.00012755     -5814.3833842812 -1.46E-03
    21 OT DIIS     0.80E-01    0.9     0.00012380     -5814.3861091536 -2.72E-03
    22 OT DIIS     0.80E-01    0.9     0.00012145     -5814.3886126015 -2.50E-03
    23 OT DIIS     0.80E-01    0.9     0.00011983     -5814.3918173760 -3.20E-03
    24 OT DIIS     0.80E-01    0.9     0.00011763     -5814.3951403060 -3.32E-03
    25 OT DIIS     0.80E-01    0.9     0.00011097     -5814.3969735942 -1.83E-03
    26 OT DIIS     0.80E-01    0.9     0.00010439     -5814.3993011274 -2.33E-03
    27 OT DIIS     0.80E-01    0.9     0.00010545     -5814.4013710713 -2.07E-03
    28 OT DIIS     0.80E-01    0.9     0.00010526     -5814.4027801350 -1.41E-03
    29 OT DIIS     0.80E-01    0.9     0.00010291     -5814.4054048487 -2.62E-03
    30 OT DIIS     0.80E-01    0.9     0.00009621     -5814.4073779452 -1.97E-03
    31 OT DIIS     0.80E-01    0.9     0.00009237     -5814.4090096179 -1.63E-03
    32 OT DIIS     0.80E-01    0.9     0.00008835     -5814.4101420703 -1.13E-03
    33 OT DIIS     0.80E-01    0.9     0.00008781     -5814.4111164868 -9.74E-04
    34 OT DIIS     0.80E-01    0.9     0.00008526     -5814.4127360695 -1.62E-03
    35 OT DIIS     0.80E-01    0.9     0.00008655     -5814.4143508696 -1.61E-03
    36 OT DIIS     0.80E-01    0.9     0.00008490     -5814.4155328239 -1.18E-03
    37 OT DIIS     0.80E-01    0.9     0.00008017     -5814.4167309894 -1.20E-03
    38 OT DIIS     0.80E-01    0.9     0.00007581     -5814.4175475319 -8.17E-04
    39 OT DIIS     0.80E-01    0.9     0.00007389     -5814.4182698855 -7.22E-04
    40 OT DIIS     0.80E-01    0.9     0.00007433     -5814.4192020242 -9.32E-04
    41 OT DIIS     0.80E-01    0.9     0.00007417     -5814.4199992205 -7.97E-04
    42 OT DIIS     0.80E-01    0.9     0.00007025     -5814.4211739737 -1.17E-03
    43 OT DIIS     0.80E-01    0.9     0.00006960     -5814.4221631428 -9.89E-04
    44 OT DIIS     0.80E-01    0.9     0.00006706     -5814.4227021471 -5.39E-04
    45 OT DIIS     0.80E-01    0.9     0.00006480     -5814.4231383402 -4.36E-04
    46 OT DIIS     0.80E-01    0.9     0.00006498     -5814.4238174068 -6.79E-04
    47 OT DIIS     0.80E-01    0.9     0.00006502     -5814.4244398961 -6.22E-04
    48 OT DIIS     0.80E-01    0.9     0.00006369     -5814.4253130605 -8.73E-04
    49 OT DIIS     0.80E-01    0.9     0.00006306     -5814.4259907576 -6.78E-04
    50 OT DIIS     0.80E-01    0.9     0.00005954     -5814.4266535596 -6.63E-04

  Leaving inner SCF loop after reaching    50 steps.


  Electronic density on regular grids:       -864.9999998620        0.0000001380
  Core density on regular grids:              864.9999999462       -0.0000000538
  Total charge density on r-space grids:        0.0000000843
  Total charge density g-space grids:           0.0000000843

  Overlap energy of the core charge distribution:               0.00000000094106
  Self energy of the core charge distribution:              -8775.68687729357589
  Core Hamiltonian energy:                                   2005.26165886902345
  Hartree energy:                                            1510.48578588664782
  Exchange-correlation energy:                               -554.48722102263559

  Total energy:                                             -5814.42665355959980

  outer SCF iter =    2 RMS gradient =   0.60E-04 energy =      -5814.4266535596

  ----------------------------------- OT ---------------------------------------
  Minimizer      : DIIS                : direct inversion
                                         in the iterative subspace
                                         using   7 DIIS vectors
                                         safer DIIS on
  Preconditioner : FULL_SINGLE_INVERSE : inversion of 
                                         H + eS - 2*(Sc)(c^T*H*c+const)(Sc)^T
  Precond_solver : DEFAULT
  stepsize       :    0.08000000                  energy_gap     :    0.08000000
  eps_taylor     :   0.10000E-15                  max_taylor     :             4
  ----------------------------------- OT ---------------------------------------

  Step     Update method      Time    Convergence         Total energy    Change
  ------------------------------------------------------------------------------
     1 OT DIIS     0.80E-01    1.8     0.00006395     -5814.4271017332 -4.48E-04
     2 OT DIIS     0.80E-01    0.8     0.00006550     -5814.4273533377 -2.52E-04
     3 OT DIIS     0.80E-01    0.8     0.00006296     -5814.4274438744 -9.05E-05
     4 OT DIIS     0.80E-01    0.8     0.00006316     -5814.4281590571 -7.15E-04
     5 OT DIIS     0.80E-01    0.8     0.00005649     -5814.4298867281 -1.73E-03
     6 OT DIIS     0.80E-01    0.9     0.00005939     -5814.4319451857 -2.06E-03
     7 OT DIIS     0.80E-01    0.9     0.00004799     -5814.4328353490 -8.90E-04
     8 OT DIIS     0.80E-01    0.9     0.00004767     -5814.4332077907 -3.72E-04
     9 OT DIIS     0.80E-01    0.9     0.00004716     -5814.4337356588 -5.28E-04
    10 OT DIIS     0.80E-01    0.9     0.00004743     -5814.4339837479 -2.48E-04
    11 OT DIIS     0.80E-01    0.9     0.00004761     -5814.4343454089 -3.62E-04
    12 OT DIIS     0.80E-01    0.9     0.00004554     -5814.4350319284 -6.87E-04
    13 OT DIIS     0.80E-01    0.9     0.00004370     -5814.4358432864 -8.11E-04
    14 OT DIIS     0.80E-01    0.9     0.00004254     -5814.4363218882 -4.79E-04
    15 OT DIIS     0.80E-01    0.9     0.00004279     -5814.4367148708 -3.93E-04
    16 OT DIIS     0.80E-01    0.9     0.00004231     -5814.4370017061 -2.87E-04
    17 OT DIIS     0.80E-01    0.9     0.00004247     -5814.4374355523 -4.34E-04
    18 OT DIIS     0.80E-01    0.9     0.00004234     -5814.4379650144 -5.29E-04
    19 OT DIIS     0.80E-01    0.9     0.00004217     -5814.4384090201 -4.44E-04
    20 OT DIIS     0.80E-01    0.9     0.00004061     -5814.4389151661 -5.06E-04
    21 OT DIIS     0.80E-01    0.9     0.00003982     -5814.4392665807 -3.51E-04
    22 OT DIIS     0.80E-01    0.9     0.00003973     -5814.4397828638 -5.16E-04
    23 OT DIIS     0.80E-01    0.9     0.00004022     -5814.4402784374 -4.96E-04
    24 OT DIIS     0.80E-01    0.9     0.00003941     -5814.4407474770 -4.69E-04
    25 OT DIIS     0.80E-01    0.9     0.00003919     -5814.4413580273 -6.11E-04
    26 OT DIIS     0.80E-01    0.9     0.00003839     -5814.4418489790 -4.91E-04
    27 OT DIIS     0.80E-01    0.9     0.00003774     -5814.4421910235 -3.42E-04
    28 OT DIIS     0.80E-01    0.9     0.00003784     -5814.4426417649 -4.51E-04
    29 OT DIIS     0.80E-01    0.9     0.00003727     -5814.4431970971 -5.55E-04
    30 OT DIIS     0.80E-01    0.9     0.00003626     -5814.4438873517 -6.90E-04
    31 OT DIIS     0.80E-01    0.9     0.00003635     -5814.4444529194 -5.66E-04
    32 OT DIIS     0.80E-01    0.9     0.00003487     -5814.4448156999 -3.63E-04
    33 OT DIIS     0.80E-01    0.9     0.00003377     -5814.4451479587 -3.32E-04
    34 OT DIIS     0.80E-01    0.9     0.00003495     -5814.4456278803 -4.80E-04
    35 OT DIIS     0.80E-01    0.9     0.00003454     -5814.4460135116 -3.86E-04
    36 OT DIIS     0.80E-01    0.9     0.00003503     -5814.4463983245 -3.85E-04
    37 OT DIIS     0.80E-01    0.9     0.00003143     -5814.4467736926 -3.75E-04
    38 OT DIIS     0.80E-01    0.9     0.00003010     -5814.4470119649 -2.38E-04
    39 OT DIIS     0.80E-01    0.9     0.00002945     -5814.4471484508 -1.36E-04
    40 OT DIIS     0.80E-01    0.9     0.00002997     -5814.4474611114 -3.13E-04
    41 OT DIIS     0.80E-01    0.9     0.00002935     -5814.4476166753 -1.56E-04
    42 OT DIIS     0.80E-01    0.9     0.00002928     -5814.4478629271 -2.46E-04
    43 OT DIIS     0.80E-01    0.9     0.00002828     -5814.4480447712 -1.82E-04
    44 OT DIIS     0.80E-01    0.9     0.00002740     -5814.4482279027 -1.83E-04
    45 OT DIIS     0.80E-01    0.9     0.00002562     -5814.4482988686 -7.10E-05
    46 OT DIIS     0.80E-01    0.9     0.00002481     -5814.4483590201 -6.02E-05
    47 OT DIIS     0.80E-01    0.9     0.00002506     -5814.4484933561 -1.34E-04
    48 OT DIIS     0.80E-01    0.9     0.00002498     -5814.4485725594 -7.92E-05
    49 OT DIIS     0.80E-01    0.9     0.00002352     -5814.4487026697 -1.30E-04
    50 OT DIIS     0.80E-01    0.9     0.00002432     -5814.4488285572 -1.26E-04

  Leaving inner SCF loop after reaching    50 steps.


  Electronic density on regular grids:       -864.9999998617        0.0000001383
  Core density on regular grids:              864.9999999462       -0.0000000538
  Total charge density on r-space grids:        0.0000000845
  Total charge density g-space grids:           0.0000000845

  Overlap energy of the core charge distribution:               0.00000000094106
  Self energy of the core charge distribution:              -8775.68687729357589
  Core Hamiltonian energy:                                   2005.17585946286454
  Hartree energy:                                            1510.54608411220670
  Exchange-correlation energy:                               -554.48389483958613

  Total energy:                                             -5814.44882855715059

  outer SCF iter =    3 RMS gradient =   0.24E-04 energy =      -5814.4488285572

  ----------------------------------- OT ---------------------------------------
  Minimizer      : DIIS                : direct inversion
                                         in the iterative subspace
                                         using   7 DIIS vectors
                                         safer DIIS on
  Preconditioner : FULL_SINGLE_INVERSE : inversion of 
                                         H + eS - 2*(Sc)(c^T*H*c+const)(Sc)^T
  Precond_solver : DEFAULT
  stepsize       :    0.08000000                  energy_gap     :    0.08000000
  eps_taylor     :   0.10000E-15                  max_taylor     :             4
  ----------------------------------- OT ---------------------------------------

  Step     Update method      Time    Convergence         Total energy    Change
  ------------------------------------------------------------------------------
     1 OT DIIS     0.80E-01    1.8     0.00002432     -5814.4488639279 -3.54E-05
     2 OT DIIS     0.80E-01    0.7     0.00003042     -5814.4488956865 -3.18E-05
     3 OT DIIS     0.80E-01    0.7     0.00002309     -5814.4489073659 -1.17E-05
     4 OT DIIS     0.80E-01    0.8     0.00002303     -5814.4489445682 -3.72E-05
     5 OT DIIS     0.80E-01    0.8     0.00002233     -5814.4490614798 -1.17E-04
     6 OT DIIS     0.80E-01    0.8     0.00002293     -5814.4493420888 -2.81E-04
     7 OT DIIS     0.80E-01    0.8     0.00001882     -5814.4496936456 -3.52E-04
     8 OT DIIS     0.80E-01    0.8     0.00001642     -5814.4498643486 -1.71E-04
     9 OT DIIS     0.80E-01    0.8     0.00001536     -5814.4499330864 -6.87E-05
    10 OT DIIS     0.80E-01    0.8     0.00001623     -5814.4499997603 -6.67E-05
    11 OT DIIS     0.80E-01    0.8     0.00001581     -5814.4500406797 -4.09E-05
    12 OT DIIS     0.80E-01    0.8     0.00001610     -5814.4501116283 -7.09E-05
    13 OT DIIS     0.80E-01    0.9     0.00001442     -5814.4502223257 -1.11E-04
    14 OT DIIS     0.80E-01    0.9     0.00001325     -5814.4502931162 -7.08E-05
    15 OT DIIS     0.80E-01    0.9     0.00001213     -5814.4503302301 -3.71E-05
    16 OT DIIS     0.80E-01    0.9     0.00001179     -5814.4503571332 -2.69E-05
    17 OT DIIS     0.80E-01    0.9     0.00001173     -5814.4503891571 -3.20E-05
    18 OT DIIS     0.80E-01    0.9     0.00001256     -5814.4504385405 -4.94E-05
    19 OT DIIS     0.80E-01    0.9     0.00001249     -5814.4504600892 -2.15E-05
    20 OT DIIS     0.80E-01    0.9     0.00001193     -5814.4504938607 -3.38E-05
    21 OT DIIS     0.80E-01    0.9     0.00001058     -5814.4505213581 -2.75E-05
    22 OT DIIS     0.80E-01    0.9     0.00001029     -5814.4505370674 -1.57E-05
    23 OT DIIS     0.80E-01    0.9     0.00001016     -5814.4505512880 -1.42E-05
    24 OT DIIS     0.80E-01    0.9     0.00001008     -5814.4505725255 -2.12E-05
    25 OT DIIS     0.80E-01    0.9     0.00001002     -5814.4506007671 -2.82E-05
    26 OT DIIS     0.80E-01    0.9     0.00001019     -5814.4506322070 -3.14E-05
    27 OT DIIS     0.80E-01    0.9     0.00000993     -5814.4506434747 -1.13E-05

  *** SCF run converged in    27 steps ***


  Electronic density on regular grids:       -864.9999998617        0.0000001383
  Core density on regular grids:              864.9999999462       -0.0000000538
  Total charge density on r-space grids:        0.0000000845
  Total charge density g-space grids:           0.0000000845

  Overlap energy of the core charge distribution:               0.00000000094106
  Self energy of the core charge distribution:              -8775.68687729357589
  Core Hamiltonian energy:                                   2005.16937859001450
  Hartree energy:                                            1510.55118541259776
  Exchange-correlation energy:                               -554.48433018468074

  Total energy:                                             -5814.45064347470361

  outer SCF iter =    4 RMS gradient =   0.99E-05 energy =      -5814.4506434747
  outer SCF loop converged in   4 iterations or  177 steps


  Integrated absolute spin density  :                               1.6065689558
  Ideal and single determinant S**2 :                    0.750000       1.058321

 ENERGY| Total FORCE_EVAL ( QS ) energy [a.u.]:            -5814.450658289258172

 Spin 1

 Number of electrons:                                                        433
 Number of occupied orbitals:                                                433
 Number of molecular orbitals:                                               433

 Spin 2

 Number of electrons:                                                        432
 Number of occupied orbitals:                                                432
 Number of molecular orbitals:                                               432

 Number of orbital functions:                                                917
 Number of independent orbital functions:                                    917

 Parameters for the always stable predictor-corrector (ASPC) method:

  ASPC order: 0

  B(1) =   1.000000

 Parameters for the always stable predictor-corrector (ASPC) method:

  ASPC order: 0

  B(1) =   1.000000

 Extrapolation method: ASPC


 SCF WAVEFUNCTION OPTIMIZATION

  ----------------------------------- OT ---------------------------------------
  Minimizer      : DIIS                : direct inversion
                                         in the iterative subspace
                                         using   7 DIIS vectors
                                         safer DIIS on
  Preconditioner : FULL_SINGLE_INVERSE : inversion of 
                                         H + eS - 2*(Sc)(c^T*H*c+const)(Sc)^T
  Precond_solver : DEFAULT
  stepsize       :    0.08000000                  energy_gap     :    0.08000000
  eps_taylor     :   0.10000E-15                  max_taylor     :             4
  ----------------------------------- OT ---------------------------------------

  Step     Update method      Time    Convergence         Total energy    Change
  ------------------------------------------------------------------------------
     1 OT DIIS     0.80E-01    0.6     0.00066823     -5814.3617142172 -5.81E+03
     2 OT DIIS     0.80E-01    0.8     0.00049584     -5814.3829297431 -2.12E-02
     3 OT DIIS     0.80E-01    0.8     0.00044400     -5814.3931941262 -1.03E-02
     4 OT DIIS     0.80E-01    0.8     0.00042165     -5814.4044997308 -1.13E-02
     5 OT DIIS     0.80E-01    0.8     0.00031032     -5814.4100401976 -5.54E-03
     6 OT DIIS     0.80E-01    0.8     0.00017925     -5814.4155434018 -5.50E-03
     7 OT DIIS     0.80E-01    0.8     0.00019827     -5814.4185059506 -2.96E-03
     8 OT DIIS     0.80E-01    0.8     0.00012096     -5814.4201317825 -1.63E-03
     9 OT DIIS     0.80E-01    0.8     0.00010072     -5814.4210639594 -9.32E-04
    10 OT DIIS     0.80E-01    0.9     0.00007861     -5814.4214250172 -3.61E-04
    11 OT DIIS     0.80E-01    0.9     0.00007056     -5814.4217675040 -3.42E-04
    12 OT DIIS     0.80E-01    0.9     0.00006386     -5814.4220478031 -2.80E-04
    13 OT DIIS     0.80E-01    0.9     0.00006763     -5814.4223514189 -3.04E-04
    14 OT DIIS     0.80E-01    0.9     0.00005375     -5814.4225827306 -2.31E-04
    15 OT DIIS     0.80E-01    0.9     0.00004754     -5814.4228594142 -2.77E-04
    16 OT DIIS     0.80E-01    0.9     0.00004286     -5814.4230362159 -1.77E-04
    17 OT DIIS     0.80E-01    0.9     0.00004048     -5814.4232176607 -1.81E-04
    18 OT DIIS     0.80E-01    0.9     0.00003940     -5814.4233804419 -1.63E-04
    19 OT DIIS     0.80E-01    0.9     0.00003759     -5814.4235688361 -1.88E-04
    20 OT DIIS     0.80E-01    0.9     0.00003568     -5814.4237222266 -1.53E-04
    21 OT DIIS     0.80E-01    0.9     0.00003413     -5814.4238716036 -1.49E-04
    22 OT DIIS     0.80E-01    0.9     0.00003049     -5814.4239368992 -6.53E-05
    23 OT DIIS     0.80E-01    0.9     0.00002767     -5814.4240431248 -1.06E-04
    24 OT DIIS     0.80E-01    0.9     0.00002646     -5814.4241262607 -8.31E-05
    25 OT DIIS     0.80E-01    0.9     0.00002589     -5814.4242300544 -1.04E-04
    26 OT DIIS     0.80E-01    0.9     0.00002481     -5814.4243153004 -8.52E-05
    27 OT DIIS     0.80E-01    0.9     0.00002339     -5814.4244060569 -9.08E-05
    28 OT DIIS     0.80E-01    0.9     0.00002240     -5814.4244727573 -6.67E-05
    29 OT DIIS     0.80E-01    0.9     0.00002183     -5814.4245511961 -7.84E-05
    30 OT DIIS     0.80E-01    0.9     0.00002157     -5814.4245903531 -3.92E-05
    31 OT DIIS     0.80E-01    0.9     0.00001997     -5814.4246673100 -7.70E-05
    32 OT DIIS     0.80E-01    0.9     0.00001893     -5814.4247264617 -5.92E-05
    33 OT DIIS     0.80E-01    0.9     0.00001804     -5814.4247868824 -6.04E-05
    34 OT DIIS     0.80E-01    0.9     0.00001720     -5814.4248305052 -4.36E-05
    35 OT DIIS     0.80E-01    0.9     0.00001648     -5814.4248761740 -4.57E-05
    36 OT DIIS     0.80E-01    0.9     0.00001629     -5814.4249163037 -4.01E-05
    37 OT DIIS     0.80E-01    0.9     0.00001599     -5814.4249655382 -4.92E-05
    38 OT DIIS     0.80E-01    0.9     0.00001607     -5814.4249912700 -2.57E-05
    39 OT DIIS     0.80E-01    0.9     0.00001462     -5814.4250302580 -3.90E-05
    40 OT DIIS     0.80E-01    0.9     0.00001398     -5814.4250583641 -2.81E-05
    41 OT DIIS     0.80E-01    0.9     0.00001350     -5814.4250864990 -2.81E-05
    42 OT DIIS     0.80E-01    0.9     0.00001328     -5814.4251115652 -2.51E-05
    43 OT DIIS     0.80E-01    0.9     0.00001291     -5814.4251402679 -2.87E-05
    44 OT DIIS     0.80E-01    0.9     0.00001279     -5814.4251683932 -2.81E-05
    45 OT DIIS     0.80E-01    0.9     0.00001242     -5814.4251990754 -3.07E-05
    46 OT DIIS     0.80E-01    0.9     0.00001246     -5814.4252172332 -1.82E-05
    47 OT DIIS     0.80E-01    0.9     0.00001175     -5814.4252414654 -2.42E-05
    48 OT DIIS     0.80E-01    0.9     0.00001153     -5814.4252637719 -2.23E-05
    49 OT DIIS     0.80E-01    0.9     0.00001127     -5814.4252883670 -2.46E-05
    50 OT DIIS     0.80E-01    0.9     0.00001111     -5814.4253120308 -2.37E-05

  Leaving inner SCF loop after reaching    50 steps.


  Electronic density on regular grids:       -864.9999998609        0.0000001391
  Core density on regular grids:              864.9999999462       -0.0000000538
  Total charge density on r-space grids:        0.0000000852
  Total charge density g-space grids:           0.0000000852

  Overlap energy of the core charge distribution:               0.00000001790668
  Self energy of the core charge distribution:              -8775.68687729357589
  Core Hamiltonian energy:                                   2004.95486318002168
  Hartree energy:                                            1510.71282317250393
  Exchange-correlation energy:                               -554.40612110765630

  Total energy:                                             -5814.42531203080034

  outer SCF iter =    1 RMS gradient =   0.11E-04 energy =      -5814.4253120308

  ----------------------------------- OT ---------------------------------------
  Minimizer      : DIIS                : direct inversion
                                         in the iterative subspace
                                         using   7 DIIS vectors
                                         safer DIIS on
  Preconditioner : FULL_SINGLE_INVERSE : inversion of 
                                         H + eS - 2*(Sc)(c^T*H*c+const)(Sc)^T
  Precond_solver : DEFAULT
  stepsize       :    0.08000000                  energy_gap     :    0.08000000
  eps_taylor     :   0.10000E-15                  max_taylor     :             4
  ----------------------------------- OT ---------------------------------------

  Step     Update method      Time    Convergence         Total energy    Change
  ------------------------------------------------------------------------------
     1 OT DIIS     0.80E-01    1.7     0.00001086     -5814.4253358625 -2.38E-05
     2 OT DIIS     0.80E-01    0.7     0.00001313     -5814.4253423170 -6.45E-06
     3 OT DIIS     0.80E-01    0.7     0.00001032     -5814.4253446451 -2.33E-06
     4 OT DIIS     0.80E-01    0.7     0.00001046     -5814.4253530449 -8.40E-06
     5 OT DIIS     0.80E-01    0.8     0.00000990     -5814.4254294997 -7.65E-05

  *** SCF run converged in     5 steps ***


  Electronic density on regular grids:       -864.9999998609        0.0000001391
  Core density on regular grids:              864.9999999462       -0.0000000538
  Total charge density on r-space grids:        0.0000000852
  Total charge density g-space grids:           0.0000000852

  Overlap energy of the core charge distribution:               0.00000001790668
  Self energy of the core charge distribution:              -8775.68687729357589
  Core Hamiltonian energy:                                   2004.95435835914441
  Hartree energy:                                            1510.71326351246307
  Exchange-correlation energy:                               -554.40617409561128

  Total energy:                                             -5814.42542949967356

  outer SCF iter =    2 RMS gradient =   0.99E-05 energy =      -5814.4254294997
  outer SCF loop converged in   2 iterations or   55 steps


  Integrated absolute spin density  :                               1.7731019329
  Ideal and single determinant S**2 :                    0.750000       1.212721

 ENERGY| Total FORCE_EVAL ( QS ) energy [a.u.]:            -5814.425444053495085

 Spin 1

 Number of electrons:                                                        433
 Number of occupied orbitals:                                                433
 Number of molecular orbitals:                                               433

 Spin 2

 Number of electrons:                                                        432
[...]
 flops   112 x    64 x    38          44080447488     100.0%      0.0%      0.0%
 flops   113 x    32 x    38          44474022912     100.0%      0.0%      0.0%
 flops   113 x    64 x    38          44474022912     100.0%      0.0%      0.0%
 flops   228 x    32 x    38          46697435136     100.0%      0.0%      0.0%
 flops   228 x    64 x    38          46697435136     100.0%      0.0%      0.0%
 flops   209 x    32 x    57          46697435136     100.0%      0.0%      0.0%
 flops   209 x    64 x    57          46697435136     100.0%      0.0%      0.0%
 flops   233 x    64 x    38          47721501696     100.0%      0.0%      0.0%
 flops   233 x    32 x    38          47721501696     100.0%      0.0%      0.0%
 flops   112 x    32 x    57          48087760896     100.0%      0.0%      0.0%
 flops   112 x    64 x    57          48087760896     100.0%      0.0%      0.0%
 flops   113 x    32 x    57          48517115904     100.0%      0.0%      0.0%
 flops   113 x    64 x    57          48517115904     100.0%      0.0%      0.0%
 flops   247 x    32 x    38          50588888064     100.0%      0.0%      0.0%
 flops   247 x    64 x    38          50588888064     100.0%      0.0%      0.0%
 flops   228 x    32 x    57          50942656512     100.0%      0.0%      0.0%
 flops   228 x    64 x    57          50942656512     100.0%      0.0%      0.0%
 flops   233 x    64 x    57          52059820032     100.0%      0.0%      0.0%
 flops   233 x    32 x    57          52059820032     100.0%      0.0%      0.0%
 flops   247 x    32 x    57          55187877888     100.0%      0.0%      0.0%
 flops   247 x    64 x    57          55187877888     100.0%      0.0%      0.0%
 flops   113 x    32 x    32          89840185344     100.0%      0.0%      0.0%
 flops   113 x    64 x    32          89840185344     100.0%      0.0%      0.0%
 flops   112 x    32 x    32          90941620224     100.0%      0.0%      0.0%
 flops   112 x    64 x    32          90941620224     100.0%      0.0%      0.0%
 flops   128 x    64 x    38         100755308544     100.0%      0.0%      0.0%
 flops   128 x    32 x    38         100755308544     100.0%      0.0%      0.0%
 flops   128 x    64 x    57         109914882048     100.0%      0.0%      0.0%
 flops   128 x    32 x    57         109914882048     100.0%      0.0%      0.0%
 flops    96 x    32 x    38         151132962816     100.0%      0.0%      0.0%
 flops    96 x    64 x    38         151132962816     100.0%      0.0%      0.0%
 flops    96 x    32 x    57         164872323072     100.0%      0.0%      0.0%
 flops    96 x    64 x    57         164872323072     100.0%      0.0%      0.0%
 flops   209 x    32 x    32         203657625600     100.0%      0.0%      0.0%
 flops   209 x    64 x    32         203657625600     100.0%      0.0%      0.0%
 flops   128 x    64 x    32         205699153920     100.0%      0.0%      0.0%
 flops   128 x    32 x    32         205699153920     100.0%      0.0%      0.0%
 flops   228 x    32 x    32         222171955200     100.0%      0.0%      0.0%
 flops   228 x    64 x    32         222171955200     100.0%      0.0%      0.0%
 flops   233 x    64 x    32         227044147200     100.0%      0.0%      0.0%
 flops   233 x    32 x    32         227044147200     100.0%      0.0%      0.0%
 flops   247 x    32 x    32         240686284800     100.0%      0.0%      0.0%
 flops   247 x    64 x    32         240686284800     100.0%      0.0%      0.0%
 flops    96 x    32 x    32         308548730880     100.0%      0.0%      0.0%
 flops    96 x    64 x    32         308548730880     100.0%      0.0%      0.0%
 flops    19 x    19 x    32         471187411968     100.0%      0.0%      0.0%
 flops    19 x    32 x    19        1917562503168     100.0%      0.0%      0.0%
 flops inhomo. stacks                           0       0.0%      0.0%      0.0%
 flops total                         8.863637E+12     100.0%      0.0%      0.0%
 flops max/rank                    349.526426E+09     100.0%      0.0%      0.0%
 matmuls inhomo. stacks                         0       0.0%      0.0%      0.0%
 matmuls total                          130511694     100.0%      0.0%      0.0%
 number of processed stacks              18274609     100.0%      0.0%      0.0%
 average stack size                                     7.1       0.0       0.0
 marketing flops                     9.372261E+12
 -------------------------------------------------------------------------------
 # multiplications                          26605
 max memory usage/rank             770.502656E+06
 # max total images/rank                        5
 # max 3D layers                                1
 # MPI messages exchanged                35118600
 MPI messages size (bytes):
  total size                       906.980164E+09
  min size                           0.000000E+00
  max size                         112.632000E+03
  average size                      25.826205E+03
 MPI breakdown and total messages size (bytes):
             size <=      128             7027224                        0
       128 < size <=     8192             4206057              33211005000
      8192 < size <=    32768            14840346             308910343776
     32768 < size <=   131072             9044973             565146081360
    131072 < size <=  4194304                   0                        0
   4194304 < size <= 16777216                   0                        0
  16777216 < size                               0                        0
 -------------------------------------------------------------------------------

 *** WARNING in dbcsr_mm.F:294 :: Using a non-square number of MPI ranks ***
 *** might lead to poor performance. Used ranks: 40 Suggested: 36 81     ***

 -------------------------------------------------------------------------------
 -                                                                             -
 -                      DBCSR MESSAGE PASSING PERFORMANCE                      -
 -                                                                             -
 -------------------------------------------------------------------------------
 ROUTINE             CALLS      AVE VOLUME [Bytes]
 MP_Bcast              222                     12.
 MP_Allreduce       143229                     10.
 MP_Alltoall         87050                  17806.
 MP_ISend          1998606                  14646.
 MP_IRecv          1972766                  13691.
 -------------------------------------------------------------------------------

 -------------------------------------------------------------------------------
 -                                                                             -
 -                                GRID STATISTICS                              -
 -                                                                             -
 -------------------------------------------------------------------------------
 LP    KERNEL             BACKEND                              COUNT     PERCENT
 4     collocate general  REF                               34129512      48.79%
 4     integrate general  REF                               33321506      47.63%
 7     integrate general  REF                                 754362       1.08%
 2     collocate general  REF                                 661110       0.95%
 2     integrate general  REF                                 645384       0.92%
 3     integrate general  REF                                 181326       0.26%
 3     collocate general  REF                                 157182       0.22%
 0     collocate general  REF                                  49656       0.07%
 0     integrate general  REF                                  19776       0.03%
 5     integrate general  REF                                  14676       0.02%
 1     collocate general  REF                                  10128       0.01%
 1     integrate general  REF                                   9888       0.01%
 6     integrate general  REF                                   3494       0.00%
 -------------------------------------------------------------------------------

 MEMORY| Estimated peak process memory [MiB]                                 735

 -------------------------------------------------------------------------------
 ----                             MULTIGRID INFO                            ----
 -------------------------------------------------------------------------------
 count for grid        1:         193756          cutoff [a.u.]          170.00
 count for grid        2:         224608          cutoff [a.u.]           56.67
 count for grid        3:         223855          cutoff [a.u.]           18.89
 count for grid        4:          88797          cutoff [a.u.]            6.30
 total gridlevel count  :         731016

 -------------------------------------------------------------------------------
 -                                                                             -
 -                         MESSAGE PASSING PERFORMANCE                         -
 -                                                                             -
 -------------------------------------------------------------------------------

 ROUTINE             CALLS      AVE VOLUME [Bytes]
 MP_Group                4
 MP_Bcast            41074                  12322.
 MP_Allreduce       110150                    378.
 MP_Sync              1390
 MP_Alltoall         17302                1126227.
 MP_ISendRecv       296010                  53067.
 MP_Wait            431637
 MP_comm_split         693
 MP_ISend           122832                 184762.
 MP_IRecv           122832                 184759.
 MP_Recv              1014                 234752.
 -------------------------------------------------------------------------------


 -------------------------------------------------------------------------------
 -                                                                             -
 -                           R E F E R E N C E S                               -
 -                                                                             -
 -------------------------------------------------------------------------------
 
 CP2K version 9.1, the CP2K developers group (2021).
 CP2K is freely available from https://www.cp2k.org/ .

 Kuehne,Thomas D.; Iannuzzi,Marcella; Del Ben,Mauro;
 Rybkin,Vladimir V.; Seewald,Patrick; Stein,Frederick; Laino,Teodoro;
 Khaliullin,Rustam Z.; Schuett,Ole; Schiffmann,Florian; Golze,Dorothea;
 Wilhelm,Jan; Chulkov,Sergey; Bani-Hashemian,Mohammad Hossein;
 Weber,Valery; Borstnik,Urban; Taillefumier,Mathieu;
 Jakobovits,Alice Shoshana; Lazzaro,Alfio; Pabst,Hans; Mueller,Tiziano;
 Schade,Robert; Guidon,Manuel; Andermatt,Samuel; Holmberg,Nico;
 Schenter,Gregory K.; Hehn,Anna; Bussy,Augustin; Belleflamme,Fabian;
 Tabacchi,Gloria; Gloess,Andreas; Lass,Michael; Bethune,Iain;
 Mundy,Christopher J.; Plessl,Christian; Watkins,Matt;
 VandeVondele,Joost; Krack,Matthias; Hutter,Juerg. 
 The Journal of Chemical Physics, 152 (19), (2020). 
 CP2K: An electronic structure and molecular dynamics software package -
 Quickstep: Efficient and accurate electronic structure calculations.
 https://doi.org/10.1063/5.0007045

 Schuett, Ole; Messmer, Peter; Hutter, Juerg; VandeVondele, Joost. 
 Electronic Structure Calculations on Graphics Processing Units, John
 Wiley & Sons, Ltd, 173-190 (2016). 
 GPU-Accelerated Sparse Matrix-Matrix Multiplication for
 Linear Scaling Density Functional Theory.
 https://doi.org/10.1002/9781118670712.ch8

 Borstnik, U; VandeVondele, J; Weber, V; Hutter, J. 
 PARALLEL COMPUTING, 40 (5-6), 47-58 (2014). 
 Sparse matrix multiplication: The distributed block-compressed sparse
 row library.
 https://doi.org/10.1016/j.parco.2014.03.012

 Hutter, J; Iannuzzi, M; Schiffmann, F; VandeVondele, J. 
 WIREs Comput Mol Sci., 4 (1), 15-25 (2014). 
 CP2K: atomistic simulations of condensed matter systems.
 https://doi.org/10.1002/wcms.1159

 Kuhne, TD; Krack, M; Mohamed, FR; Parrinello, M. 
 PHYSICAL REVIEW LETTERS, 98 (6), 066401 (2007). 
 Efficient and accurate Car-Parrinello-like approach to
 Born-Oppenheimer molecular dynamics.
 https://doi.org/10.1103/PhysRevLett.98.066401

 Krack, M. 
 THEORETICAL CHEMISTRY ACCOUNTS, 114 (1-3), 145-152 (2005). 
 Pseudopotentials for H to Kr optimized for gradient-corrected
 exchange-correlation functionals.
 https://doi.org/10.1007/s00214-005-0655-y

 VandeVondele, J; Krack, M; Mohamed, F; Parrinello, M; Chassaing, T;
 Hutter, J. COMPUTER PHYSICS COMMUNICATIONS, 167 (2), 103-128 (2005). 
 QUICKSTEP: Fast and accurate density functional calculations using a
 mixed Gaussian and plane waves approach.
 https://doi.org/10.1016/j.cpc.2004.12.014

 Frigo, M; Johnson, SG. 
 PROCEEDINGS OF THE IEEE, 93 (2), 216-231 (2005). 
 The design and implementation of FFTW3.
 https://doi.org/10.1109/JPROC.2004.840301

 Kolafa, J. 
 JOURNAL OF COMPUTATIONAL CHEMISTRY, 25 (3), 335-342 (2004). 
 Time-reversible always stable predictor-corrector method for
 molecular dynamics of polarizable molecules.
 https://doi.org/10.1002/jcc.10385

 VandeVondele, J; Hutter, J. 
 JOURNAL OF CHEMICAL PHYSICS, 118 (10), 4365-4369 (2003). 
 An efficient orbital transformation method for electronic structure
 calculations.
 https://doi.org/10.1063/1.1543154

 Hartwigsen, C; Goedecker, S; Hutter, J. 
 PHYSICAL REVIEW B, 58 (7), 3641-3662 (1998). 
 Relativistic separable dual-space Gaussian pseudopotentials from H to Rn.
 https://doi.org/10.1103/PhysRevB.58.3641

 Lippert, G; Hutter, J; Parrinello, M. 
 MOLECULAR PHYSICS, 92 (3), 477-487 (1997). 
 A hybrid Gaussian and plane wave density functional scheme.
 https://doi.org/10.1080/002689797170220

 Goedecker, S; Teter, M; Hutter, J. 
 PHYSICAL REVIEW B, 54 (3), 1703-1710 (1996). 
 Separable dual-space Gaussian pseudopotentials.
 https://doi.org/10.1103/PhysRevB.54.1703

 BYRD, RH; LU, PH; NOCEDAL, J; ZHU, CY. 
 SIAM JOURNAL ON SCIENTIFIC COMPUTING, 16 (5), 1190-1208 (1995). 
 A LIMITED MEMORY ALGORITHM FOR BOUND CONSTRAINED OPTIMIZATION.
 https://doi.org/10.1137/0916069


 -------------------------------------------------------------------------------
 -                                                                             -
 -                                T I M I N G                                  -
 -                                                                             -
 -------------------------------------------------------------------------------
 SUBROUTINE                       CALLS  ASD         SELF TIME        TOTAL TIME
                                MAXIMUM       AVERAGE  MAXIMUM  AVERAGE  MAXIMUM
 CP2K                                 1  1.0    0.083    0.089  537.570  537.570
 cp_geo_opt                           1  2.0    0.000    0.001  537.106  537.107
 geoopt_lbfgs                         1  3.0    0.000    0.000  537.105  537.107
 cp_eval_at                          15  4.9    0.002    0.013  537.036  537.043
 cp_opt_gopt_step                     6  4.0    0.001    0.012  525.710  525.710
 qs_forces                           14  6.0    0.002    0.002  525.637  525.637
 qs_energies                         15  6.9    0.003    0.012  521.954  521.957
 scf_env_do_scf                      15  7.9    0.002    0.005  513.561  513.561
 scf_env_do_scf_inner_loop          618  9.0    0.018    0.242  503.425  503.557
 rebuild_ks_matrix                  632 10.9    0.002    0.002  236.489  236.716
 qs_ks_build_kohn_sham_matrix       632 11.9    0.078    0.094  236.487  236.714
 qs_ks_update_qs_env                638 10.0    0.005    0.006  225.503  225.724
 sum_up_and_integrate               632 12.9    0.672    0.802  211.975  211.997
 integrate_v_rspace                1264 13.9    0.024    0.028  211.301  211.341
 qs_rho_update_rho                  633 10.0    0.004    0.005  194.916  194.935
 calculate_rho_elec                1266 11.0    0.606    0.740  194.912  194.931
 grid_collocate_task_list          1266 12.0  129.066  133.490  129.066  133.490
 grid_integrate_task_list          1264 14.9  120.369  124.765  120.369  124.765
 rs_pw_transfer                   10149 14.4    0.083    0.099  116.029  119.092
 qs_scf_new_mos                     618 10.0    0.003    0.004   94.087   94.381
 qs_scf_loop_do_ot                  618 11.0    0.009    0.019   94.084   94.377
 ot_scf_mini                        618 12.0    0.034    0.053   90.483   90.658
 potential_pw2rs                   1264 14.9    0.160    0.182   85.336   85.475
 dbcsr_multiply_generic           26605 15.0    1.304    1.368   67.069   67.874
 density_rs2pw                     1266 12.0    0.067    0.074   64.134   67.365
 rs_pw_transfer_PW2RS_170          1278 16.8   22.438   23.368   63.144   63.626
 ot_mini                            618 13.0    0.006    0.007   41.202   41.465
 multiply_cannon                  26605 16.0    2.443    2.586   36.511   40.477
 qs_ot_get_p                       1276 12.9    0.010    0.017   38.231   38.660
 pw_transfer                      13297 14.2    0.847    0.951   37.597   37.783
 rs_pw_transfer_RS2PW_170          1281 14.0   19.454   20.661   33.464   36.919
 fft_wrap_pw1pw2                  12033 15.2    0.070    0.079   36.301   36.528
 qs_ot_get_derivative              1236 14.0    0.011    0.012   35.044   35.182
 multiply_cannon_loop             26605 17.0    2.819    3.181   30.173   34.126
 fft_wrap_pw1pw2_170               4443 15.8    2.895    3.286   31.901   32.349
 qs_ot_p2m_diag                     693 14.0    0.258    0.414   31.360   31.626
 rs_grid_zero                      1293 17.8   29.216   29.453   29.216   29.453
 fft3d_ps                         12033 17.2   15.954   17.608   29.085   29.434
 cp_dbcsr_syevd                     693 15.0    0.044    0.050   28.227   28.242
 mp_waitall_1                   2224365 18.8   21.509   25.519   21.509   25.519
 mp_waitany                      122832 16.4   19.094   25.303   19.094   25.303
 cp_fm_syevd                        693 16.0    0.004    0.007   22.997   23.029
 make_m2s                         53210 16.0    1.004    1.075   18.827   19.454
 cp_fm_redistribute_end             693 17.0   14.560   18.175   14.614   18.198
 cp_fm_syevd_base                   693 17.0    3.570   17.886    3.570   17.886
 multiply_cannon_metrocomm3      532100 18.0    0.915    0.943   12.166   16.136
 qs_ot_get_derivative_diag          674 15.0    0.018    0.019   14.928   15.003
 make_images                      53210 17.0    1.507    1.665   13.105   13.631
 multiply_cannon_multrec         532100 18.0    7.969   12.025    8.090   12.157
 qs_vxc_create                      632 12.9    0.012    0.016   11.276   11.342
 xc_vxc_pw_create                   632 13.9    0.224    0.283   11.264   11.333
 qs_ot_get_derivative_taylor        562 14.9    0.020    0.022   11.103   11.165
 qs_ks_update_qs_env_forces          14  7.0    0.000    0.000   11.102   11.107
 mp_alltoall_z22v                 12033 19.2    9.804   10.823    9.804   10.823
 xc_rho_set_and_dset_create         632 14.9    0.037    0.045    7.416   10.781
 -------------------------------------------------------------------------------

 The number of warnings for this run is : 1
 
 -------------------------------------------------------------------------------
  **** **** ******  **  PROGRAM ENDED AT                 2022-06-15 21:59:55.801
 ***** ** ***  *** **   PROGRAM RAN ON               Orion-05-67.HPC.MsState.Edu
 **    ****   ******    PROGRAM RAN BY                                     wnw36
 ***** **    ** ** **   PROGRAM PROCESS ID                                124865
  **** **  *******  **  PROGRAM STOPPED IN /work/hpc/users/wnw36/MSU-DFT-Catalys
                                           is-School/5_NEB/1_O-Diffusion/Pt/1_re
                                           actant
