 DBCSR| CPU Multiplication driver                                           XSMM
 DBCSR| Multrec recursion limit                                              512
 DBCSR| Multiplication stack size                                           1000
 DBCSR| Maximum elements for images                                    UNLIMITED
 DBCSR| Multiplicative factor virtual images                                   1
 DBCSR| Use multiplication densification                                       T
 DBCSR| Multiplication size stacks                                             3
 DBCSR| Use memory pool for CPU allocation                                     F
 DBCSR| OMP: Current number of threads                                        12
 DBCSR| OMP: Max number of threads                                            12
 DBCSR| Split modifier for TAS multiplication algorithm                  1.0E+00


  **** **** ******  **  PROGRAM STARTED AT               2022-06-06 20:14:34.200
 ***** ** ***  *** **   PROGRAM STARTED ON                                pop-os
 **    ****   ******    PROGRAM STARTED BY                         woodrowwilson
 ***** **    ** ** **   PROGRAM PROCESS ID                                  3324
  **** **  *******  **  PROGRAM STARTED IN /home/woodrowwilson/Documents/Worksho
                                           ps/MSU-DFT-Catalysis-School/1_Gas-Pha
                                           se-Molecules/1_H2/3_Vibrational-Modes

 CP2K| version string:                                          CP2K version 9.1
 CP2K| source code revision number:                                  git:d8d7100
 CP2K| cp2kflags: omp libint fftw3 libxc xsmm plumed2 spglib libvori libbqb     
 CP2K| is freely available from                            https://www.cp2k.org/
 CP2K| Program compiled at                       Wed May 25 08:10:51 PM CDT 2022
 CP2K| Program compiled on                                                pop-os
 CP2K| Program compiled for                                PopOS-x86-64-gfortran
 CP2K| Data directory path            /home/woodrowwilson/Programs/cp2k/9.1/data
 CP2K| Input file name                                             cp2k-PADE.inp

 GLOBAL| Force Environment number                                              1
 GLOBAL| Basis set file name                                           BASIS_SET
 GLOBAL| Potential file name                                      GTH_POTENTIALS
 GLOBAL| MM Potential file name                                     MM_POTENTIAL
 GLOBAL| Coordinate file name                                      __STD_INPUT__
 GLOBAL| Method name                                                        CP2K
 GLOBAL| Project name                                                     H2-VIB
 GLOBAL| Run type                                           VIBRATIONAL_ANALYSIS
 GLOBAL| FFT library                                                       FFTW3
 GLOBAL| Diagonalization library                                       ScaLAPACK
 GLOBAL| Orthonormality check for eigenvectors                          DISABLED
 GLOBAL| Matrix multiplication library                                 ScaLAPACK
 GLOBAL| All-to-all communication in single precision                          F
 GLOBAL| FFTs using library dependent lengths                                  F
 GLOBAL| Grid backend                                                       AUTO
 GLOBAL| Global print level                                               MEDIUM
 GLOBAL| MPI I/O enabled                                                       T
 GLOBAL| Total number of message passing processes                             1
 GLOBAL| Number of threads for this process                                   12
 GLOBAL| This output is from process                                           0
 GLOBAL| Stack size for threads created by OpenMP (OMP_STACKSIZE)        default
 GLOBAL| CPU model name                 Intel(R) Core(TM) i7-9750H CPU @ 2.60GHz
 GLOBAL| CPUID                                                              1002

 MEMORY| system memory details [Kb]
 MEMORY|                        rank 0           min           max       average
 MEMORY| MemTotal             32580248      32580248      32580248      32580248
 MEMORY| MemFree              28705088      28705088      28705088      28705088
 MEMORY| Buffers                127284        127284        127284        127284
 MEMORY| Cached                2096812       2096812       2096812       2096812
 MEMORY| Slab                   201768        201768        201768        201768
 MEMORY| SReclaimable            95708         95708         95708         95708
 MEMORY| MemLikelyFree        31024892      31024892      31024892      31024892


 *** Fundamental physical constants (SI units) ***

 *** Literature: B. J. Mohr and B. N. Taylor,
 ***             CODATA recommended values of the fundamental physical
 ***             constants: 2006, Web Version 5.1
 ***             http://physics.nist.gov/constants

 Speed of light in vacuum [m/s]                             2.99792458000000E+08
 Magnetic constant or permeability of vacuum [N/A**2]       1.25663706143592E-06
 Electric constant or permittivity of vacuum [F/m]          8.85418781762039E-12
 Planck constant (h) [J*s]                                  6.62606896000000E-34
 Planck constant (h-bar) [J*s]                              1.05457162825177E-34
 Elementary charge [C]                                      1.60217648700000E-19
 Electron mass [kg]                                         9.10938215000000E-31
 Electron g factor [ ]                                     -2.00231930436220E+00
 Proton mass [kg]                                           1.67262163700000E-27
 Fine-structure constant                                    7.29735253760000E-03
 Rydberg constant [1/m]                                     1.09737315685270E+07
 Avogadro constant [1/mol]                                  6.02214179000000E+23
 Boltzmann constant [J/K]                                   1.38065040000000E-23
 Atomic mass unit [kg]                                      1.66053878200000E-27
 Bohr radius [m]                                            5.29177208590000E-11

 *** Conversion factors ***

 [u] -> [a.u.]                                              1.82288848426455E+03
 [Angstrom] -> [Bohr] = [a.u.]                              1.88972613288564E+00
 [a.u.] = [Bohr] -> [Angstrom]                              5.29177208590000E-01
 [a.u.] -> [s]                                              2.41888432650478E-17
 [a.u.] -> [fs]                                             2.41888432650478E-02
 [a.u.] -> [J]                                              4.35974393937059E-18
 [a.u.] -> [N]                                              8.23872205491840E-08
 [a.u.] -> [K]                                              3.15774647902944E+05
 [a.u.] -> [kJ/mol]                                         2.62549961709828E+03
 [a.u.] -> [kcal/mol]                                       6.27509468713739E+02
 [a.u.] -> [Pa]                                             2.94210107994716E+13
 [a.u.] -> [bar]                                            2.94210107994716E+08
 [a.u.] -> [atm]                                            2.90362800883016E+08
 [a.u.] -> [eV]                                             2.72113838565563E+01
 [a.u.] -> [Hz]                                             6.57968392072181E+15
 [a.u.] -> [1/cm] (wave numbers)                            2.19474631370540E+05
 [a.u./Bohr**2] -> [1/cm]                                   5.14048714338585E+03
 

 CELL_TOP| Volume [angstrom^3]:                                       512.000000
 CELL_TOP| Vector a [angstrom     8.000     0.000     0.000   |a| =     8.000000
 CELL_TOP| Vector b [angstrom     0.000     8.000     0.000   |b| =     8.000000
 CELL_TOP| Vector c [angstrom     0.000     0.000     8.000   |c| =     8.000000
 CELL_TOP| Angle (b,c), alpha [degree]:                                90.000000
 CELL_TOP| Angle (a,c), beta  [degree]:                                90.000000
 CELL_TOP| Angle (a,b), gamma [degree]:                                90.000000
 CELL_TOP| Numerically orthorhombic:                                         YES

 GENERATE|  Preliminary Number of Bonds generated:                             0
 GENERATE|  Achieved consistency in connectivity generation.

 CELL| Volume [angstrom^3]:                                           512.000000
 CELL| Vector a [angstrom]:       8.000     0.000     0.000   |a| =     8.000000
 CELL| Vector b [angstrom]:       0.000     8.000     0.000   |b| =     8.000000
 CELL| Vector c [angstrom]:       0.000     0.000     8.000   |c| =     8.000000
 CELL| Angle (b,c), alpha [degree]:                                    90.000000
 CELL| Angle (a,c), beta  [degree]:                                    90.000000
 CELL| Angle (a,b), gamma [degree]:                                    90.000000
 CELL| Numerically orthorhombic:                                             YES

 CELL_REF| Volume [angstrom^3]:                                       512.000000
 CELL_REF| Vector a [angstrom     8.000     0.000     0.000   |a| =     8.000000
 CELL_REF| Vector b [angstrom     0.000     8.000     0.000   |b| =     8.000000
 CELL_REF| Vector c [angstrom     0.000     0.000     8.000   |c| =     8.000000
 CELL_REF| Angle (b,c), alpha [degree]:                                90.000000
 CELL_REF| Angle (a,c), beta  [degree]:                                90.000000
 CELL_REF| Angle (a,b), gamma [degree]:                                90.000000
 CELL_REF| Numerically orthorhombic:                                         YES

 *******************************************************************************
 *******************************************************************************
 **                                                                           **
 **     #####                         ##              ##                      **
 **    ##   ##            ##          ##              ##                      **
 **   ##     ##                       ##            ######                    **
 **   ##     ##  ##   ##  ##   #####  ##  ##   ####   ##    #####    #####    **
 **   ##     ##  ##   ##  ##  ##      ## ##   ##      ##   ##   ##  ##   ##   **
 **   ##  ## ##  ##   ##  ##  ##      ####     ###    ##   ######   ######    **
 **    ##  ###   ##   ##  ##  ##      ## ##      ##   ##   ##       ##        **
 **     #######   #####   ##   #####  ##  ##  ####    ##    #####   ##        **
 **           ##                                                    ##        **
 **                                                                           **
 **                                                ... make the atoms dance   **
 **                                                                           **
 **            Copyright (C) by CP2K developers group (2000-2021)             **
 **                      J. Chem. Phys. 152, 194103 (2020)                    **
 **                                                                           **
 *******************************************************************************

 DFT| Spin unrestricted (spin-polarized) Kohn-Sham calculation               UKS
 DFT| Multiplicity                                                             1
 DFT| Number of spin states                                                    2
 DFT| Charge                                                                   0
 DFT| Self-interaction correction (SIC)                                       NO
 DFT| Cutoffs: density                                              1.000000E-10
 DFT|          gradient                                             1.000000E-10
 DFT|          tau                                                  1.000000E-10
 DFT|          cutoff_smoothing_range                               0.000000E+00
 DFT| XC density smoothing                                                  NONE
 DFT| XC derivatives                                                          PW
 FUNCTIONAL| ROUTINE=NEW
 FUNCTIONAL| PADE:
 FUNCTIONAL| S. Goedecker, M. Teter and J. Hutter, Phys. Rev. B 54, 1703 (1996) 

 QS| Method:                                                                 GPW
 QS| Density plane wave grid type                        NON-SPHERICAL FULLSPACE
 QS| Number of grid levels:                                                    4
 QS| Density cutoff [a.u.]:                                                170.0
 QS| Multi grid cutoff [a.u.]: 1) grid level                               170.0
 QS|                           2) grid level                                56.7
 QS|                           3) grid level                                18.9
 QS|                           4) grid level                                 6.3
 QS| Grid level progression factor:                                          3.0
 QS| Relative density cutoff [a.u.]:                                        20.0
 QS| Interaction thresholds: eps_pgf_orb:                                1.0E-05
 QS|                         eps_filter_matrix:                          0.0E+00
 QS|                         eps_core_charge:                            1.0E-12
 QS|                         eps_rho_gspace:                             1.0E-10
 QS|                         eps_rho_rspace:                             1.0E-10
 QS|                         eps_gvg_rspace:                             1.0E-05
 QS|                         eps_ppl:                                    1.0E-02
 QS|                         eps_ppnl:                                   1.0E-07


 ATOMIC KIND INFORMATION

  1. Atomic kind: H                                     Number of atoms:       2

     Orbital Basis Set                                             DZVP-GTH-PADE

       Number of orbital shell sets:                                           2
       Number of orbital shells:                                               3
       Number of primitive Cartesian functions:                                5
       Number of Cartesian basis functions:                                    5
       Number of spherical basis functions:                                    5
       Norm type:                                                              2

       Normalised Cartesian orbitals:

                        Set   Shell   Orbital            Exponent    Coefficient

                          1       1    1s                8.374435      -0.083834
                                                         1.805868      -0.155208
                                                         0.485253      -0.104875
                                                         0.165824      -0.128813

                          1       2    2s                8.374435       0.000000
                                                         1.805868       0.000000
                                                         0.485253       0.000000
                                                         0.165824       0.185202

                          2       1    2px               0.700000       0.912668
                          2       1    2py               0.700000       0.912668
                          2       1    2pz               0.700000       0.912668

       Atomic covalent radius [Angstrom]:                                  0.320

       Atomic van der Waals radius [Angstrom]:                             1.090

     GTH Potential information for                                   GTH-PADE-q1

       Description:                       Goedecker-Teter-Hutter pseudopotential
                                           Goedecker et al., PRB 54, 1703 (1996)
                                          Hartwigsen et al., PRB 58, 3641 (1998)
                                                      Krack, TCA 114, 145 (2005)

       Gaussian exponent of the core charge distribution:              12.500000
       Electronic configuration (s p d ...):                                   1

       Parameters of the local part of the GTH pseudopotential:

                          rloc        C1          C2          C3          C4
                        0.200000   -4.180237    0.725075


 MOLECULE KIND INFORMATION


 All atoms are their own molecule, skipping detailed information


 TOTAL NUMBERS AND MAXIMUM NUMBERS

  Total number of            - Atomic kinds:                                   1
                             - Atoms:                                          2
                             - Shell sets:                                     4
                             - Shells:                                         6
                             - Primitive Cartesian functions:                 10
                             - Cartesian basis functions:                     10
                             - Spherical basis functions:                     10

  Maximum angular momentum of- Orbital basis functions:                        1
                             - Local part of the GTH pseudopotential:          2


 MODULE QUICKSTEP:  ATOMIC COORDINATES IN angstrom

 Atom  Kind  Element       X           Y           Z          Z(eff)       Mass
    1   1 H    1       4.000000    4.000000    4.000000       1.0000      1.0079
    2   1 H    1       4.763558    4.000000    4.000000       1.0000      1.0079




 SCF PARAMETERS         Density guess:                                    ATOMIC
                        --------------------------------------------------------
                        max_scf:                                              50
                        max_scf_history:                                       0
                        max_diis:                                              4
                        --------------------------------------------------------
                        eps_scf:                                        1.00E-08
                        eps_scf_history:                                0.00E+00
                        eps_diis:                                       1.00E-01
                        eps_eigval:                                     1.00E-05
                        --------------------------------------------------------
                        level_shift [a.u.]:                                 0.00
                        --------------------------------------------------------
                        Outer loop SCF in use 
                        No variables optimised in outer loop
                        eps_scf                                         1.00E-05
                        max_scf                                               50
                        No outer loop optimization
                        step_size                                       5.00E-01

 PW_GRID| Information for grid number                                          1
 PW_GRID| Cutoff [a.u.]                                                    170.0
 PW_GRID| spherical cutoff:                                                   NO
 PW_GRID|   Bounds   1            -45      44                Points:          90
 PW_GRID|   Bounds   2            -45      44                Points:          90
 PW_GRID|   Bounds   3            -45      44                Points:          90
 PW_GRID| Volume element (a.u.^3)  0.4740E-02     Volume (a.u.^3)      3455.1473
 PW_GRID| Grid span                                                    FULLSPACE

 PW_GRID| Information for grid number                                          2
 PW_GRID| Number of the reference grid                                         1
 PW_GRID| Cutoff [a.u.]                                                     56.7
 PW_GRID| spherical cutoff:                                                   NO
 PW_GRID|   Bounds   1            -27      26                Points:          54
 PW_GRID|   Bounds   2            -27      26                Points:          54
 PW_GRID|   Bounds   3            -27      26                Points:          54
 PW_GRID| Volume element (a.u.^3)  0.2194E-01     Volume (a.u.^3)      3455.1473
 PW_GRID| Grid span                                                    FULLSPACE

 PW_GRID| Information for grid number                                          3
 PW_GRID| Number of the reference grid                                         1
 PW_GRID| Cutoff [a.u.]                                                     18.9
 PW_GRID| spherical cutoff:                                                   NO
 PW_GRID|   Bounds   1            -15      14                Points:          30
 PW_GRID|   Bounds   2            -15      14                Points:          30
 PW_GRID|   Bounds   3            -15      14                Points:          30
 PW_GRID| Volume element (a.u.^3)  0.1280         Volume (a.u.^3)      3455.1473
 PW_GRID| Grid span                                                    FULLSPACE

 PW_GRID| Information for grid number                                          4
 PW_GRID| Number of the reference grid                                         1
 PW_GRID| Cutoff [a.u.]                                                      6.3
 PW_GRID| spherical cutoff:                                                   NO
 PW_GRID|   Bounds   1             -9       8                Points:          18
 PW_GRID|   Bounds   2             -9       8                Points:          18
 PW_GRID|   Bounds   3             -9       8                Points:          18
 PW_GRID| Volume element (a.u.^3)  0.5924         Volume (a.u.^3)      3455.1473
 PW_GRID| Grid span                                                    FULLSPACE

 POISSON| Solver                                                        PERIODIC
 POISSON| Periodicity                                                        XYZ

 RS_GRID| Information for grid number                                          1
 RS_GRID|   Bounds   1            -45      44                Points:          90
 RS_GRID|   Bounds   2            -45      44                Points:          90
 RS_GRID|   Bounds   3            -45      44                Points:          90

 RS_GRID| Information for grid number                                          2
 RS_GRID|   Bounds   1            -27      26                Points:          54
 RS_GRID|   Bounds   2            -27      26                Points:          54
 RS_GRID|   Bounds   3            -27      26                Points:          54

 RS_GRID| Information for grid number                                          3
 RS_GRID|   Bounds   1            -15      14                Points:          30
 RS_GRID|   Bounds   2            -15      14                Points:          30
 RS_GRID|   Bounds   3            -15      14                Points:          30

 RS_GRID| Information for grid number                                          4
 RS_GRID|   Bounds   1             -9       8                Points:          18
 RS_GRID|   Bounds   2             -9       8                Points:          18
 RS_GRID|   Bounds   3             -9       8                Points:          18

 *******************************************************************************
 *******************************************************************************
 **                                                                           **
 **  #  #   #    #                  #     #                      ##           **
 **  #  #        ###   # ##   ###  ####         ##   # #    ###   #           **
 **  #  #   #    #  #  ##    #  #   #     #    #  #  ## #  #  #   #           **
 **   ##    #    #  #  #     # ##   #     #    #  #  #  #  # ##   #           **
 **   ##    #    ###   #      # #    ##   #     ##   #  #   # #  ###          **
 **                                                                           **
 **   ##               ##                 #                                   **
 **  #  #  # #    ###   #    #  #   ###         ###                           **
 **  #  #  ## #  #  #   #    #  #  ##     #    ##                             **
 **  ####  #  #  # ##   #     ###    ##   #      ##  N. Replicas:           1 **
 **  #  #  #  #   # #  ###      #  ###    #    ###   N. Procs/Rep:          1 **
 **                           ##                                              **
 **                                       T. Laino  and F. Schiffmann         **
 **                                       2008 - 2015                         **
 *******************************************************************************
 *******************************************************************************

 REPLICA| layout of the replica grid, number of groups                         1
 REPLICA| layout of the replica grid, size of each group                       1
 REPLICA| MPI process to grid (group,rank) correspondence:
  (   0 :    0,   0)

 VIB| Vibrational Analysis Info
 VIB| REPLICA Nr.    1- Energy and Forces for particle:    1  coordinate: X + DX
 VIB|                                     Total energy:          -1.134187430813
 VIB|    ATOM                            X                Y                Z
 VIB|      H                      -0.003561741      0.000000000      0.000000000           
 VIB|      H                       0.003560930      0.000000000      0.000000000           
 VIB| REPLICA Nr.    1- Energy and Forces for particle:    1  coordinate: Y + DY
 VIB|                                     Total energy:          -1.134205704076
 VIB|    ATOM                            X                Y                Z
 VIB|      H                      -0.000097830      0.000002314      0.000000000           
 VIB|      H                       0.000095492     -0.000000797      0.000000000           
 VIB| REPLICA Nr.    1- Energy and Forces for particle:    1  coordinate: Z + DZ
 VIB|                                     Total energy:          -1.134205704076
 VIB|    ATOM                            X                Y                Z
 VIB|      H                      -0.000097829      0.000000000      0.000002314           
 VIB|      H                       0.000095491      0.000000000     -0.000000797           
 VIB| REPLICA Nr.    1- Energy and Forces for particle:    2  coordinate: X + DX
 VIB|                                     Total energy:          -1.134189960498
 VIB|    ATOM                            X                Y                Z
 VIB|      H                       0.003231656      0.000000000      0.000000000           
 VIB|      H                      -0.003235111      0.000000000      0.000000000           
 VIB| REPLICA Nr.    1- Energy and Forces for particle:    2  coordinate: Y + DY
 VIB|                                     Total energy:          -1.134205704077
 VIB|    ATOM                            X                Y                Z
 VIB|      H                      -0.000097829     -0.000000797      0.000000000           
 VIB|      H                       0.000095491      0.000002314      0.000000000           
 VIB| REPLICA Nr.    1- Energy and Forces for particle:    2  coordinate: Z + DZ
 VIB|                                     Total energy:          -1.134205704077
 VIB|    ATOM                            X                Y                Z
 VIB|      H                      -0.000097829      0.000000000     -0.000000797           
 VIB|      H                       0.000095491      0.000000000      0.000002314           
 VIB| REPLICA Nr.    1- Energy and Forces for particle:    1  coordinate: X - DX
 VIB|                                     Total energy:          -1.134189997512
 VIB|    ATOM                            X                Y                Z
 VIB|      H                       0.003230130      0.000000000      0.000000000           
 VIB|      H                      -0.003233992      0.000000000      0.000000000           
 VIB| REPLICA Nr.    1- Energy and Forces for particle:    1  coordinate: Y - DY
 VIB|                                     Total energy:          -1.134205704076
 VIB|    ATOM                            X                Y                Z
 VIB|      H                      -0.000097830     -0.000002314      0.000000000           
 VIB|      H                       0.000095491      0.000000797      0.000000000           
 VIB| REPLICA Nr.    1- Energy and Forces for particle:    1  coordinate: Z - DZ
 VIB|                                     Total energy:          -1.134205704076
 VIB|    ATOM                            X                Y                Z
 VIB|      H                      -0.000097977      0.000000002     -0.000002314           
 VIB|      H                       0.000095638     -0.000000002      0.000000797           
 VIB| REPLICA Nr.    1- Energy and Forces for particle:    2  coordinate: X - DX
 VIB|                                     Total energy:          -1.134187439526
 VIB|    ATOM                            X                Y                Z
 VIB|      H                      -0.003563268      0.000000000      0.000000000           
 VIB|      H                       0.003562356      0.000000000      0.000000000           
 VIB| REPLICA Nr.    1- Energy and Forces for particle:    2  coordinate: Y - DY
 VIB|                                     Total energy:          -1.134205704077
 VIB|    ATOM                            X                Y                Z
 VIB|      H                      -0.000097830      0.000000797      0.000000000           
 VIB|      H                       0.000095492     -0.000002314      0.000000000           
 VIB| REPLICA Nr.    1- Energy and Forces for particle:    2  coordinate: Z - DZ
 VIB|                                     Total energy:          -1.134205704077
 VIB|    ATOM                            X                Y                Z
 VIB|      H                      -0.000097829      0.000000000      0.000000797           
 VIB|      H                       0.000095491      0.000000000     -0.000002314           
 VIB| 
  Minimum Structure - Energy and Forces:
 VIB|                                     Total energy:          -1.134205692213
 VIB|    ATOM                            X                Y                Z
 VIB|      H                      -0.000109601      0.000000000      0.000000000           
 VIB|      H                       0.000107262      0.000000000      0.000000000           
 VIB| Hessian in cartesian coordinates

                    1            2            3            4            5
     1  H      184.826673     0.000021    -0.004019  -184.909757    -0.000027
     2  H        0.000000    -0.125938     0.000045     0.000000     0.043374
     3  H        0.000000    -0.000000    -0.125948    -0.000000    -0.000000
     4  H     -184.909715    -0.000021     0.004019   184.978974     0.000027
     5  H       -0.000000     0.043375    -0.000045    -0.000000    -0.125935
     6  H        0.000000     0.000000     0.043385     0.000000     0.000000

                    6
     1  H       -0.000000
     2  H        0.000000
     3  H        0.043374
     4  H        0.000000
     5  H        0.000000
     6  H       -0.125935
 VIB| Cartesian Low frequencies ----0.16935    -0.16930    -0.82628E-01-0.82554E-01
 VIB| Cartesian Low frequencies ----0.68715E-02  369.81    
 VIB| Eigenvectors before removal of rotations and translations

                    1            2            3            4            5
     1  H        0.007725     0.004132    -0.017779    -0.006025     0.706949
     2  H       -0.337073     0.621606     0.229939    -0.668667     0.000134
     3  H        0.621949     0.336839    -0.667859    -0.230057    -0.027513
     4  H        0.007715     0.004127    -0.017764    -0.006020     0.706658
     5  H        0.336740    -0.621767     0.230297    -0.668562     0.000049
     6  H       -0.621328    -0.336923    -0.668898    -0.230021    -0.010023

                    6
     1  H       -0.706961
     2  H       -0.000000
     3  H        0.000008
     4  H        0.707252
     5  H        0.000000
     6  H        0.000000
 VIB| Frequencies after removal of the rotations and translations
 VIB| Internal  Low frequencies ---  369.81    

 VIB|                        NORMAL MODES - CARTESIAN DISPLACEMENTS
 VIB|
 VIB|                         1
 VIB|Frequency (cm^-1)  4220.609467
 VIB|Intensities           0.000000
 VIB|Red.Masses (a.u.)     1.007940
 VIB|Frc consts (a.u.)     0.818856
  ATOM  EL             X     Y     Z        X     Y     Z        X     Y     Z  
     1  H             0.71  0.00  0.00
     2  H            -0.71  0.00  0.00



 VIB|                        NORMAL MODES - THERMOCHEMICAL DATA
 VIB|
 VIB|              Symmetry number:                                                 1
 VIB|              Temperature [K]:                                            300.00
 VIB|              Pressure [Pa]:                                           100000.00


 VIB|              Electronic energy (U) [kJ/mol]:                     -2977.85661062
 VIB|              Zero-point correction [kJ/mol]:                        25.24485056
 VIB|              Entropy [kJ/(mol K)]:                                   0.13677100
 VIB|              Enthalpy correction (H-U) [kJ/mol]:                    33.97504673
 VIB|              Gibbs energy correction [kJ/mol]:                      -7.05625181
 VIB|              Heat capacity [kJ/(mol*K)]:                             0.02910066



 -------------------------------------------------------------------------------
 -                                                                             -
 -                                DBCSR STATISTICS                             -
 -                                                                             -
 -------------------------------------------------------------------------------
 COUNTER                                    TOTAL       BLAS       SMM       ACC
 flops     1 x     1 x    10                  520       0.0%    100.0%      0.0%
 flops     5 x     1 x     1                23400       0.0%    100.0%      0.0%
 flops     5 x     5 x     1                46800       0.0%    100.0%      0.0%
 flops     5 x     1 x    10                52000       0.0%    100.0%      0.0%
 flops     5 x     1 x     5               138200       0.0%    100.0%      0.0%
 flops inhomo. stacks                       20896     100.0%      0.0%      0.0%
 flops total                       281.816000E+03       7.4%     92.6%      0.0%
 flops max/rank                    281.816000E+03       7.4%     92.6%      0.0%
 matmuls inhomo. stacks                      2258     100.0%      0.0%      0.0%
 matmuls total                               8844      25.5%     74.5%      0.0%
 number of processed stacks                  7150      31.6%     68.4%      0.0%
 average stack size                                     1.0       1.3       0.0
 marketing flops                   297.936000E+03
 -------------------------------------------------------------------------------
 # multiplications                           4743
 max memory usage/rank             721.399808E+06
 # max total images/rank                        1
 # max 3D layers                                1
 # MPI messages exchanged                       0
 -------------------------------------------------------------------------------

 -------------------------------------------------------------------------------
 -                                                                             -
 -                                GRID STATISTICS                              -
 -                                                                             -
 -------------------------------------------------------------------------------
 LP    KERNEL             BACKEND                              COUNT     PERCENT
 0     collocate ortho    REF                                  16900      35.29%
 0     integrate ortho    REF                                  15210      31.76%
 1     collocate ortho    REF                                   6240      13.03%
 1     integrate ortho    REF                                   5616      11.73%
 3     integrate ortho    REF                                   1690       3.53%
 2     collocate ortho    REF                                    780       1.63%
 2     integrate ortho    REF                                    702       1.47%
 4     integrate ortho    REF                                    624       1.30%
 5     integrate ortho    REF                                     78       0.16%
 0     collocate general  REF                                     26       0.05%
 3     integrate general  REF                                     26       0.05%
 -------------------------------------------------------------------------------

 MEMORY| Estimated peak process memory [MiB]                                 688

 -------------------------------------------------------------------------------
 ----                             MULTIGRID INFO                            ----
 -------------------------------------------------------------------------------
 count for grid        1:            152          cutoff [a.u.]          170.00
 count for grid        2:            124          cutoff [a.u.]           56.67
 count for grid        3:             76          cutoff [a.u.]           18.89
 count for grid        4:              8          cutoff [a.u.]            6.30
 total gridlevel count  :            360

 -------------------------------------------------------------------------------
 -                                                                             -
 -                           R E F E R E N C E S                               -
 -                                                                             -
 -------------------------------------------------------------------------------
 
 CP2K version 9.1, the CP2K developers group (2021).
 CP2K is freely available from https://www.cp2k.org/ .

 Kuehne,Thomas D.; Iannuzzi,Marcella; Del Ben,Mauro;
 Rybkin,Vladimir V.; Seewald,Patrick; Stein,Frederick; Laino,Teodoro;
 Khaliullin,Rustam Z.; Schuett,Ole; Schiffmann,Florian; Golze,Dorothea;
 Wilhelm,Jan; Chulkov,Sergey; Bani-Hashemian,Mohammad Hossein;
 Weber,Valery; Borstnik,Urban; Taillefumier,Mathieu;
 Jakobovits,Alice Shoshana; Lazzaro,Alfio; Pabst,Hans; Mueller,Tiziano;
 Schade,Robert; Guidon,Manuel; Andermatt,Samuel; Holmberg,Nico;
 Schenter,Gregory K.; Hehn,Anna; Bussy,Augustin; Belleflamme,Fabian;
 Tabacchi,Gloria; Gloess,Andreas; Lass,Michael; Bethune,Iain;
 Mundy,Christopher J.; Plessl,Christian; Watkins,Matt;
 VandeVondele,Joost; Krack,Matthias; Hutter,Juerg. 
 The Journal of Chemical Physics, 152 (19), (2020). 
 CP2K: An electronic structure and molecular dynamics software package -
 Quickstep: Efficient and accurate electronic structure calculations.
 https://doi.org/10.1063/5.0007045

 Schuett, Ole; Messmer, Peter; Hutter, Juerg; VandeVondele, Joost. 
 Electronic Structure Calculations on Graphics Processing Units, John
 Wiley & Sons, Ltd, 173-190 (2016). 
 GPU-Accelerated Sparse Matrix-Matrix Multiplication for
 Linear Scaling Density Functional Theory.
 https://doi.org/10.1002/9781118670712.ch8

 Heinecke, A; Henry, G; Hutchinson, M; Pabst, H. 
 Proceedings of Intl. Supercomputing Conference, 981-991 (2016). 
 LIBXSMM: Accelerating Small Matrix Multiplications
 by Runtime Code Generation.
 https://doi.org/10.1109/SC.2016.83

 Borstnik, U; VandeVondele, J; Weber, V; Hutter, J. 
 PARALLEL COMPUTING, 40 (5-6), 47-58 (2014). 
 Sparse matrix multiplication: The distributed block-compressed sparse
 row library.
 https://doi.org/10.1016/j.parco.2014.03.012

 Hutter, J; Iannuzzi, M; Schiffmann, F; VandeVondele, J. 
 WIREs Comput Mol Sci., 4 (1), 15-25 (2014). 
 CP2K: atomistic simulations of condensed matter systems.
 https://doi.org/10.1002/wcms.1159

 Kuhne, TD; Krack, M; Mohamed, FR; Parrinello, M. 
 PHYSICAL REVIEW LETTERS, 98 (6), 066401 (2007). 
 Efficient and accurate Car-Parrinello-like approach to
 Born-Oppenheimer molecular dynamics.
 https://doi.org/10.1103/PhysRevLett.98.066401

 Krack, M. 
 THEORETICAL CHEMISTRY ACCOUNTS, 114 (1-3), 145-152 (2005). 
 Pseudopotentials for H to Kr optimized for gradient-corrected
 exchange-correlation functionals.
 https://doi.org/10.1007/s00214-005-0655-y

 VandeVondele, J; Krack, M; Mohamed, F; Parrinello, M; Chassaing, T;
 Hutter, J. COMPUTER PHYSICS COMMUNICATIONS, 167 (2), 103-128 (2005). 
 QUICKSTEP: Fast and accurate density functional calculations using a
 mixed Gaussian and plane waves approach.
 https://doi.org/10.1016/j.cpc.2004.12.014

 Frigo, M; Johnson, SG. 
 PROCEEDINGS OF THE IEEE, 93 (2), 216-231 (2005). 
 The design and implementation of FFTW3.
 https://doi.org/10.1109/JPROC.2004.840301

 Kolafa, J. 
 JOURNAL OF COMPUTATIONAL CHEMISTRY, 25 (3), 335-342 (2004). 
 Time-reversible always stable predictor-corrector method for
 molecular dynamics of polarizable molecules.
 https://doi.org/10.1002/jcc.10385

 VandeVondele, J; Hutter, J. 
 JOURNAL OF CHEMICAL PHYSICS, 118 (10), 4365-4369 (2003). 
 An efficient orbital transformation method for electronic structure
 calculations.
 https://doi.org/10.1063/1.1543154

 Hartwigsen, C; Goedecker, S; Hutter, J. 
 PHYSICAL REVIEW B, 58 (7), 3641-3662 (1998). 
 Relativistic separable dual-space Gaussian pseudopotentials from H to Rn.
 https://doi.org/10.1103/PhysRevB.58.3641

 Lippert, G; Hutter, J; Parrinello, M. 
 MOLECULAR PHYSICS, 92 (3), 477-487 (1997). 
 A hybrid Gaussian and plane wave density functional scheme.
 https://doi.org/10.1080/002689797170220

 Goedecker, S; Teter, M; Hutter, J. 
 PHYSICAL REVIEW B, 54 (3), 1703-1710 (1996). 
 Separable dual-space Gaussian pseudopotentials.
 https://doi.org/10.1103/PhysRevB.54.1703


 -------------------------------------------------------------------------------
 -                                                                             -
 -                                T I M I N G                                  -
 -                                                                             -
 -------------------------------------------------------------------------------
 SUBROUTINE                       CALLS  ASD         SELF TIME        TOTAL TIME
                                MAXIMUM       AVERAGE  MAXIMUM  AVERAGE  MAXIMUM
 CP2K                                 1  1.0    0.037    0.037   34.348   34.348
 vb_anal                              1  2.0   33.975   33.975   34.152   34.152
 -------------------------------------------------------------------------------

 The number of warnings for this run is : 0
 
 -------------------------------------------------------------------------------
  **** **** ******  **  PROGRAM ENDED AT                 2022-06-06 20:15:08.752
 ***** ** ***  *** **   PROGRAM RAN ON                                    pop-os
 **    ****   ******    PROGRAM RAN BY                             woodrowwilson
 ***** **    ** ** **   PROGRAM PROCESS ID                                  3324
  **** **  *******  **  PROGRAM STOPPED IN /home/woodrowwilson/Documents/Worksho
                                           ps/MSU-DFT-Catalysis-School/1_Gas-Pha
                                           se-Molecules/1_H2/3_Vibrational-Modes
