
  **** **** ******  **  PROGRAM STARTED AT               2022-06-06 20:14:34.200
 ***** ** ***  *** **   PROGRAM STARTED ON                                pop-os
 **    ****   ******    PROGRAM STARTED BY                         woodrowwilson
 ***** **    ** ** **   PROGRAM PROCESS ID                                  3324
  **** **  *******  **  PROGRAM STARTED IN /home/woodrowwilson/Documents/Worksho
                                           ps/MSU-DFT-Catalysis-School/1_Gas-Pha
                                           se-Molecules/1_H2/3_Vibrational-Modes

 CP2K| version string:                                          CP2K version 9.1
 CP2K| source code revision number:                                  git:d8d7100
 CP2K| cp2kflags: omp libint fftw3 libxc xsmm plumed2 spglib libvori libbqb     
 CP2K| is freely available from                            https://www.cp2k.org/
 CP2K| Program compiled at                       Wed May 25 08:10:51 PM CDT 2022
 CP2K| Program compiled on                                                pop-os
 CP2K| Program compiled for                                PopOS-x86-64-gfortran
 CP2K| Data directory path            /home/woodrowwilson/Programs/cp2k/9.1/data
 CP2K| Input file name                                            H2-VIB-r-0.inp

 GLOBAL| Force Environment number                                              1
 GLOBAL| Basis set file name                                           BASIS_SET
 GLOBAL| Potential file name                                      GTH_POTENTIALS
 GLOBAL| MM Potential file name                                     MM_POTENTIAL
 GLOBAL| Coordinate file name                                      __STD_INPUT__
 GLOBAL| Method name                                                        CP2K
 GLOBAL| Project name                                                 H2-VIB-r-0
 GLOBAL| Run type                                           VIBRATIONAL_ANALYSIS
 GLOBAL| FFT library                                                       FFTW3
 GLOBAL| Diagonalization library                                       ScaLAPACK
 GLOBAL| Orthonormality check for eigenvectors                          DISABLED
 GLOBAL| Matrix multiplication library                                 ScaLAPACK
 GLOBAL| All-to-all communication in single precision                          F
 GLOBAL| FFTs using library dependent lengths                                  F
 GLOBAL| Grid backend                                                       AUTO
 GLOBAL| Global print level                                               MEDIUM
 GLOBAL| MPI I/O enabled                                                       T
 GLOBAL| Total number of message passing processes                             1
 GLOBAL| Number of threads for this process                                   12
 GLOBAL| This output is from process                                           0
 GLOBAL| Stack size for threads created by OpenMP (OMP_STACKSIZE)        default
 GLOBAL| CPU model name                 Intel(R) Core(TM) i7-9750H CPU @ 2.60GHz
 GLOBAL| CPUID                                                              1002

 MEMORY| system memory details [Kb]
 MEMORY|                        rank 0           min           max       average
 MEMORY| MemTotal             32580248      32580248      32580248      32580248
 MEMORY| MemFree              28658788      28658788      28658788      28658788
 MEMORY| Buffers                127284        127284        127284        127284
 MEMORY| Cached                2096816       2096816       2096816       2096816
 MEMORY| Slab                   201768        201768        201768        201768
 MEMORY| SReclaimable            95708         95708         95708         95708
 MEMORY| MemLikelyFree        30978596      30978596      30978596      30978596


 *** Fundamental physical constants (SI units) ***

 *** Literature: B. J. Mohr and B. N. Taylor,
 ***             CODATA recommended values of the fundamental physical
 ***             constants: 2006, Web Version 5.1
 ***             http://physics.nist.gov/constants

 Speed of light in vacuum [m/s]                             2.99792458000000E+08
 Magnetic constant or permeability of vacuum [N/A**2]       1.25663706143592E-06
 Electric constant or permittivity of vacuum [F/m]          8.85418781762039E-12
 Planck constant (h) [J*s]                                  6.62606896000000E-34
 Planck constant (h-bar) [J*s]                              1.05457162825177E-34
 Elementary charge [C]                                      1.60217648700000E-19
 Electron mass [kg]                                         9.10938215000000E-31
 Electron g factor [ ]                                     -2.00231930436220E+00
 Proton mass [kg]                                           1.67262163700000E-27
 Fine-structure constant                                    7.29735253760000E-03
 Rydberg constant [1/m]                                     1.09737315685270E+07
 Avogadro constant [1/mol]                                  6.02214179000000E+23
 Boltzmann constant [J/K]                                   1.38065040000000E-23
 Atomic mass unit [kg]                                      1.66053878200000E-27
 Bohr radius [m]                                            5.29177208590000E-11

 *** Conversion factors ***

 [u] -> [a.u.]                                              1.82288848426455E+03
 [Angstrom] -> [Bohr] = [a.u.]                              1.88972613288564E+00
 [a.u.] = [Bohr] -> [Angstrom]                              5.29177208590000E-01
 [a.u.] -> [s]                                              2.41888432650478E-17
 [a.u.] -> [fs]                                             2.41888432650478E-02
 [a.u.] -> [J]                                              4.35974393937059E-18
 [a.u.] -> [N]                                              8.23872205491840E-08
 [a.u.] -> [K]                                              3.15774647902944E+05
 [a.u.] -> [kJ/mol]                                         2.62549961709828E+03
 [a.u.] -> [kcal/mol]                                       6.27509468713739E+02
 [a.u.] -> [Pa]                                             2.94210107994716E+13
 [a.u.] -> [bar]                                            2.94210107994716E+08
 [a.u.] -> [atm]                                            2.90362800883016E+08
 [a.u.] -> [eV]                                             2.72113838565563E+01
 [a.u.] -> [Hz]                                             6.57968392072181E+15
 [a.u.] -> [1/cm] (wave numbers)                            2.19474631370540E+05
 [a.u./Bohr**2] -> [1/cm]                                   5.14048714338585E+03
 

 CELL_TOP| Volume [angstrom^3]:                                       512.000000
 CELL_TOP| Vector a [angstrom     8.000     0.000     0.000   |a| =     8.000000
 CELL_TOP| Vector b [angstrom     0.000     8.000     0.000   |b| =     8.000000
 CELL_TOP| Vector c [angstrom     0.000     0.000     8.000   |c| =     8.000000
 CELL_TOP| Angle (b,c), alpha [degree]:                                90.000000
 CELL_TOP| Angle (a,c), beta  [degree]:                                90.000000
 CELL_TOP| Angle (a,b), gamma [degree]:                                90.000000
 CELL_TOP| Numerically orthorhombic:                                         YES

 GENERATE|  Preliminary Number of Bonds generated:                             0
 GENERATE|  Achieved consistency in connectivity generation.

 CELL| Volume [angstrom^3]:                                           512.000000
 CELL| Vector a [angstrom]:       8.000     0.000     0.000   |a| =     8.000000
 CELL| Vector b [angstrom]:       0.000     8.000     0.000   |b| =     8.000000
 CELL| Vector c [angstrom]:       0.000     0.000     8.000   |c| =     8.000000
 CELL| Angle (b,c), alpha [degree]:                                    90.000000
 CELL| Angle (a,c), beta  [degree]:                                    90.000000
 CELL| Angle (a,b), gamma [degree]:                                    90.000000
 CELL| Numerically orthorhombic:                                             YES

 CELL_REF| Volume [angstrom^3]:                                       512.000000
 CELL_REF| Vector a [angstrom     8.000     0.000     0.000   |a| =     8.000000
 CELL_REF| Vector b [angstrom     0.000     8.000     0.000   |b| =     8.000000
 CELL_REF| Vector c [angstrom     0.000     0.000     8.000   |c| =     8.000000
 CELL_REF| Angle (b,c), alpha [degree]:                                90.000000
 CELL_REF| Angle (a,c), beta  [degree]:                                90.000000
 CELL_REF| Angle (a,b), gamma [degree]:                                90.000000
 CELL_REF| Numerically orthorhombic:                                         YES

 *******************************************************************************
 *******************************************************************************
 **                                                                           **
 **     #####                         ##              ##                      **
 **    ##   ##            ##          ##              ##                      **
 **   ##     ##                       ##            ######                    **
 **   ##     ##  ##   ##  ##   #####  ##  ##   ####   ##    #####    #####    **
 **   ##     ##  ##   ##  ##  ##      ## ##   ##      ##   ##   ##  ##   ##   **
 **   ##  ## ##  ##   ##  ##  ##      ####     ###    ##   ######   ######    **
 **    ##  ###   ##   ##  ##  ##      ## ##      ##   ##   ##       ##        **
 **     #######   #####   ##   #####  ##  ##  ####    ##    #####   ##        **
 **           ##                                                    ##        **
 **                                                                           **
 **                                                ... make the atoms dance   **
 **                                                                           **
 **            Copyright (C) by CP2K developers group (2000-2021)             **
 **                      J. Chem. Phys. 152, 194103 (2020)                    **
 **                                                                           **
 *******************************************************************************

 DFT| Spin unrestricted (spin-polarized) Kohn-Sham calculation               UKS
 DFT| Multiplicity                                                             1
 DFT| Number of spin states                                                    2
 DFT| Charge                                                                   0
 DFT| Self-interaction correction (SIC)                                       NO
 DFT| Cutoffs: density                                              1.000000E-10
 DFT|          gradient                                             1.000000E-10
 DFT|          tau                                                  1.000000E-10
 DFT|          cutoff_smoothing_range                               0.000000E+00
 DFT| XC density smoothing                                                  NONE
 DFT| XC derivatives                                                          PW
 FUNCTIONAL| ROUTINE=NEW
 FUNCTIONAL| PADE:
 FUNCTIONAL| S. Goedecker, M. Teter and J. Hutter, Phys. Rev. B 54, 1703 (1996) 

 QS| Method:                                                                 GPW
 QS| Density plane wave grid type                        NON-SPHERICAL FULLSPACE
 QS| Number of grid levels:                                                    4
 QS| Density cutoff [a.u.]:                                                170.0
 QS| Multi grid cutoff [a.u.]: 1) grid level                               170.0
 QS|                           2) grid level                                56.7
 QS|                           3) grid level                                18.9
 QS|                           4) grid level                                 6.3
 QS| Grid level progression factor:                                          3.0
 QS| Relative density cutoff [a.u.]:                                        20.0
 QS| Interaction thresholds: eps_pgf_orb:                                1.0E-05
 QS|                         eps_filter_matrix:                          0.0E+00
 QS|                         eps_core_charge:                            1.0E-12
 QS|                         eps_rho_gspace:                             1.0E-10
 QS|                         eps_rho_rspace:                             1.0E-10
 QS|                         eps_gvg_rspace:                             1.0E-05
 QS|                         eps_ppl:                                    1.0E-02
 QS|                         eps_ppnl:                                   1.0E-07


 ATOMIC KIND INFORMATION

  1. Atomic kind: H                                     Number of atoms:       2

     Orbital Basis Set                                             DZVP-GTH-PADE

       Number of orbital shell sets:                                           2
       Number of orbital shells:                                               3
       Number of primitive Cartesian functions:                                5
       Number of Cartesian basis functions:                                    5
       Number of spherical basis functions:                                    5
       Norm type:                                                              2

       Normalised Cartesian orbitals:

                        Set   Shell   Orbital            Exponent    Coefficient

                          1       1    1s                8.374435      -0.083834
                                                         1.805868      -0.155208
                                                         0.485253      -0.104875
                                                         0.165824      -0.128813

                          1       2    2s                8.374435       0.000000
                                                         1.805868       0.000000
                                                         0.485253       0.000000
                                                         0.165824       0.185202

                          2       1    2px               0.700000       0.912668
                          2       1    2py               0.700000       0.912668
                          2       1    2pz               0.700000       0.912668

       Atomic covalent radius [Angstrom]:                                  0.320

       Atomic van der Waals radius [Angstrom]:                             1.090

     GTH Potential information for                                   GTH-PADE-q1

       Description:                       Goedecker-Teter-Hutter pseudopotential
                                           Goedecker et al., PRB 54, 1703 (1996)
                                          Hartwigsen et al., PRB 58, 3641 (1998)
                                                      Krack, TCA 114, 145 (2005)

       Gaussian exponent of the core charge distribution:              12.500000
       Electronic configuration (s p d ...):                                   1

       Parameters of the local part of the GTH pseudopotential:

                          rloc        C1          C2          C3          C4
                        0.200000   -4.180237    0.725075


 MOLECULE KIND INFORMATION


 All atoms are their own molecule, skipping detailed information


 TOTAL NUMBERS AND MAXIMUM NUMBERS

  Total number of            - Atomic kinds:                                   1
                             - Atoms:                                          2
                             - Shell sets:                                     4
                             - Shells:                                         6
                             - Primitive Cartesian functions:                 10
                             - Cartesian basis functions:                     10
                             - Spherical basis functions:                     10

  Maximum angular momentum of- Orbital basis functions:                        1
                             - Local part of the GTH pseudopotential:          2


 MODULE QUICKSTEP:  ATOMIC COORDINATES IN angstrom

 Atom  Kind  Element       X           Y           Z          Z(eff)       Mass
    1   1 H    1       4.000000    4.000000    4.000000       1.0000      1.0079
    2   1 H    1       4.763558    4.000000    4.000000       1.0000      1.0079




 SCF PARAMETERS         Density guess:                                    ATOMIC
                        --------------------------------------------------------
                        max_scf:                                              50
                        max_scf_history:                                       0
                        max_diis:                                              4
                        --------------------------------------------------------
                        eps_scf:                                        1.00E-08
                        eps_scf_history:                                0.00E+00
                        eps_diis:                                       1.00E-01
                        eps_eigval:                                     1.00E-05
                        --------------------------------------------------------
                        level_shift [a.u.]:                                 0.00
                        --------------------------------------------------------
                        Outer loop SCF in use 
                        No variables optimised in outer loop
                        eps_scf                                         1.00E-05
                        max_scf                                               50
                        No outer loop optimization
                        step_size                                       5.00E-01

 PW_GRID| Information for grid number                                          5
 PW_GRID| Cutoff [a.u.]                                                    170.0
 PW_GRID| spherical cutoff:                                                   NO
 PW_GRID|   Bounds   1            -45      44                Points:          90
 PW_GRID|   Bounds   2            -45      44                Points:          90
 PW_GRID|   Bounds   3            -45      44                Points:          90
 PW_GRID| Volume element (a.u.^3)  0.4740E-02     Volume (a.u.^3)      3455.1473
 PW_GRID| Grid span                                                    FULLSPACE

 PW_GRID| Information for grid number                                          6
 PW_GRID| Number of the reference grid                                         5
 PW_GRID| Cutoff [a.u.]                                                     56.7
 PW_GRID| spherical cutoff:                                                   NO
 PW_GRID|   Bounds   1            -27      26                Points:          54
 PW_GRID|   Bounds   2            -27      26                Points:          54
 PW_GRID|   Bounds   3            -27      26                Points:          54
 PW_GRID| Volume element (a.u.^3)  0.2194E-01     Volume (a.u.^3)      3455.1473
 PW_GRID| Grid span                                                    FULLSPACE

 PW_GRID| Information for grid number                                          7
 PW_GRID| Number of the reference grid                                         5
 PW_GRID| Cutoff [a.u.]                                                     18.9
 PW_GRID| spherical cutoff:                                                   NO
 PW_GRID|   Bounds   1            -15      14                Points:          30
 PW_GRID|   Bounds   2            -15      14                Points:          30
 PW_GRID|   Bounds   3            -15      14                Points:          30
 PW_GRID| Volume element (a.u.^3)  0.1280         Volume (a.u.^3)      3455.1473
 PW_GRID| Grid span                                                    FULLSPACE

 PW_GRID| Information for grid number                                          8
 PW_GRID| Number of the reference grid                                         5
 PW_GRID| Cutoff [a.u.]                                                      6.3
 PW_GRID| spherical cutoff:                                                   NO
 PW_GRID|   Bounds   1             -9       8                Points:          18
 PW_GRID|   Bounds   2             -9       8                Points:          18
 PW_GRID|   Bounds   3             -9       8                Points:          18
 PW_GRID| Volume element (a.u.^3)  0.5924         Volume (a.u.^3)      3455.1473
 PW_GRID| Grid span                                                    FULLSPACE

 POISSON| Solver                                                        PERIODIC
 POISSON| Periodicity                                                        XYZ

 RS_GRID| Information for grid number                                          5
 RS_GRID|   Bounds   1            -45      44                Points:          90
 RS_GRID|   Bounds   2            -45      44                Points:          90
 RS_GRID|   Bounds   3            -45      44                Points:          90

 RS_GRID| Information for grid number                                          6
 RS_GRID|   Bounds   1            -27      26                Points:          54
 RS_GRID|   Bounds   2            -27      26                Points:          54
 RS_GRID|   Bounds   3            -27      26                Points:          54

 RS_GRID| Information for grid number                                          7
 RS_GRID|   Bounds   1            -15      14                Points:          30
 RS_GRID|   Bounds   2            -15      14                Points:          30
 RS_GRID|   Bounds   3            -15      14                Points:          30

 RS_GRID| Information for grid number                                          8
 RS_GRID|   Bounds   1             -9       8                Points:          18
 RS_GRID|   Bounds   2             -9       8                Points:          18
 RS_GRID|   Bounds   3             -9       8                Points:          18

 Spin 1

 Number of electrons:                                                          1
 Number of occupied orbitals:                                                  1
 Number of molecular orbitals:                                                 1

 Spin 2

 Number of electrons:                                                          1
 Number of occupied orbitals:                                                  1
 Number of molecular orbitals:                                                 1

 Number of orbital functions:                                                 10
 Number of independent orbital functions:                                     10

 Extrapolation method: initial_guess

 Atomic guess: The first density matrix is obtained in terms of atomic orbitals
               and electronic configurations assigned to each atomic kind

 Guess for atomic kind: H

 Electronic structure
    Total number of core electrons                                          0.00
    Total number of valence electrons                                       1.00
    Total number of electrons                                               1.00
    Multiplicity                                                   not specified
    S      1.00


 *******************************************************************************
                  Iteration          Convergence                     Energy [au]
 *******************************************************************************
                          1        0.316011E-02                  -0.422390558413
                          2        0.333152E-03                  -0.422399635530
                          3        0.114302E-06                  -0.422399737491

 Energy components [Hartree]           Total Energy ::           -0.422399737491
                                        Band Energy ::           -0.193019372217
                                     Kinetic Energy ::            0.475009752129
                                   Potential Energy ::           -0.897409489620
                                      Virial (-V/T) ::            1.889244348347
                                        Core Energy ::           -0.478923189740
                                          XC Energy ::           -0.248206713182
                                     Coulomb Energy ::            0.304730165431
                       Total Pseudopotential Energy ::           -0.971460622099
                       Local Pseudopotential Energy ::           -0.971460622099
                    Nonlocal Pseudopotential Energy ::            0.000000000000
                                        Confinement ::            0.175276802303

 Orbital energies  State     L     Occupation   Energy[a.u.]          Energy[eV]

                       1     0          1.000      -0.193019           -5.252324


 Total Electron Density at R=0:                                         0.237353

 Spin 1
 Re-scaling the density matrix to get the right number of electrons for spin 1
                  # Electrons              Trace(P)               Scaling factor
                            1                 1.000                        1.000

 Spin 2
 Re-scaling the density matrix to get the right number of electrons for spin 2
                  # Electrons              Trace(P)               Scaling factor
                            1                 1.000                        1.000


 SCF WAVEFUNCTION OPTIMIZATION

  ----------------------------------- OT ---------------------------------------
  Minimizer      : DIIS                : direct inversion
                                         in the iterative subspace
                                         using   7 DIIS vectors
                                         safer DIIS on
  Preconditioner : FULL_SINGLE_INVERSE : inversion of 
                                         H + eS - 2*(Sc)(c^T*H*c+const)(Sc)^T
  Precond_solver : DEFAULT
  stepsize       :    0.08000000                  energy_gap     :    0.08000000
  eps_taylor     :   0.10000E-15                  max_taylor     :             4
  ----------------------------------- OT ---------------------------------------

  Step     Update method      Time    Convergence         Total energy    Change
  ------------------------------------------------------------------------------
     1 OT DIIS     0.80E-01    0.2     0.12626553        -1.0627101536 -1.06E+00
     2 OT DIIS     0.80E-01    0.3     0.10459383        -1.0860448326 -2.33E-02
     3 OT DIIS     0.80E-01    0.3     0.01159826        -1.1336372015 -4.76E-02
     4 OT DIIS     0.80E-01    0.2     0.00926927        -1.1338246509 -1.87E-04
     5 OT SD       0.80E-01    0.2     0.00212817        -1.1341668849 -3.42E-04
     6 OT DIIS     0.80E-01    0.2     0.00173667        -1.1341734623 -6.58E-06
     7 OT SD       0.80E-01    0.2     0.00112830        -1.1341822829 -8.82E-06
     8 OT DIIS     0.80E-01    0.2     0.00090396        -1.1341841172 -1.83E-06
     9 OT DIIS     0.80E-01    0.2     0.00003917        -1.1341874232 -3.31E-06
    10 OT DIIS     0.80E-01    0.2     0.00000975        -1.1341874304 -7.15E-09
    11 OT DIIS     0.80E-01    0.2     0.00000707        -1.1341874306 -1.94E-10
    12 OT DIIS     0.80E-01    0.2     0.00000002        -1.1341874308 -2.62E-10
    13 OT DIIS     0.80E-01    0.2     8.8430E-09        -1.1341874308 -3.33E-15

  *** SCF run converged in    13 steps ***


  Electronic density on regular grids:         -1.9999999996        0.0000000004
  Core density on regular grids:                1.9999999999       -0.0000000001
  Total charge density on r-space grids:        0.0000000003
  Total charge density g-space grids:           0.0000000003

  Overlap energy of the core charge distribution:               0.00000028334498
  Self energy of the core charge distribution:                 -2.82094791773878
  Core Hamiltonian energy:                                      0.95082853201516
  Hartree energy:                                               1.38707845455941
  Exchange-correlation energy:                                 -0.65114678299389

  Total energy:                                                -1.13418743081313

  outer SCF iter =    1 RMS gradient =   0.88E-08 energy =         -1.1341874308
  outer SCF loop converged in   1 iterations or   13 steps


  Integrated absolute spin density  :                               0.0000000000
  Ideal and single determinant S**2 :                    0.000000      -0.000000

 ENERGY| Total FORCE_EVAL ( QS ) energy [a.u.]:               -1.134187430813133

 Spin 1

 Number of electrons:                                                          1
 Number of occupied orbitals:                                                  1
 Number of molecular orbitals:                                                 1

 Spin 2

 Number of electrons:                                                          1
 Number of occupied orbitals:                                                  1
 Number of molecular orbitals:                                                 1

 Number of orbital functions:                                                 10
 Number of independent orbital functions:                                     10

 Parameters for the always stable predictor-corrector (ASPC) method:

  ASPC order: 0

  B(1) =   1.000000

 Parameters for the always stable predictor-corrector (ASPC) method:

  ASPC order: 0

  B(1) =   1.000000

 Extrapolation method: ASPC


 SCF WAVEFUNCTION OPTIMIZATION

  ----------------------------------- OT ---------------------------------------
  Minimizer      : DIIS                : direct inversion
                                         in the iterative subspace
                                         using   7 DIIS vectors
                                         safer DIIS on
  Preconditioner : FULL_SINGLE_INVERSE : inversion of 
                                         H + eS - 2*(Sc)(c^T*H*c+const)(Sc)^T
  Precond_solver : DEFAULT
  stepsize       :    0.08000000                  energy_gap     :    0.08000000
  eps_taylor     :   0.10000E-15                  max_taylor     :             4
  ----------------------------------- OT ---------------------------------------

  Step     Update method      Time    Convergence         Total energy    Change
  ------------------------------------------------------------------------------
     1 OT DIIS     0.80E-01    0.3     0.00090556        -1.1342016820 -1.13E+00
     2 OT DIIS     0.80E-01    0.3     0.00075748        -1.1342028868 -1.20E-06
     3 OT DIIS     0.80E-01    0.2     0.00003943        -1.1342056956 -2.81E-06
     4 OT DIIS     0.80E-01    0.2     0.00000062        -1.1342057041 -8.48E-09
     5 OT DIIS     0.80E-01    0.2     0.00000037        -1.1342057041 -1.24E-12
     6 OT SD       0.80E-01    0.2     1.7166E-09        -1.1342057041 -7.03E-13

  *** SCF run converged in     6 steps ***


  Electronic density on regular grids:         -1.9999999996        0.0000000004
  Core density on regular grids:                1.9999999999       -0.0000000001
  Total charge density on r-space grids:        0.0000000003
  Total charge density g-space grids:           0.0000000003

  Overlap energy of the core charge distribution:               0.00000023341113
  Self energy of the core charge distribution:                 -2.82094791773878
  Core Hamiltonian energy:                                      0.94715455558658
  Hartree energy:                                               1.38922676653558
  Exchange-correlation energy:                                 -0.64963934187070

  Total energy:                                                -1.13420570407619

  outer SCF iter =    1 RMS gradient =   0.17E-08 energy =         -1.1342057041
  outer SCF loop converged in   1 iterations or    6 steps


  Integrated absolute spin density  :                               0.0000000000
  Ideal and single determinant S**2 :                    0.000000      -0.000000

 ENERGY| Total FORCE_EVAL ( QS ) energy [a.u.]:               -1.134205704076186

 Spin 1

 Number of electrons:                                                          1
 Number of occupied orbitals:                                                  1
 Number of molecular orbitals:                                                 1

 Spin 2

 Number of electrons:                                                          1
 Number of occupied orbitals:                                                  1
 Number of molecular orbitals:                                                 1

 Number of orbital functions:                                                 10
 Number of independent orbital functions:                                     10

 Parameters for the always stable predictor-corrector (ASPC) method:

  ASPC order: 0

  B(1) =   2.000000
  B(2) =  -1.000000

 Parameters for the always stable predictor-corrector (ASPC) method:

  ASPC order: 0

  B(1) =   2.000000
  B(2) =  -1.000000

 Extrapolation method: ASPC


 SCF WAVEFUNCTION OPTIMIZATION

  ----------------------------------- OT ---------------------------------------
  Minimizer      : DIIS                : direct inversion
                                         in the iterative subspace
                                         using   7 DIIS vectors
                                         safer DIIS on
  Preconditioner : FULL_SINGLE_INVERSE : inversion of 
                                         H + eS - 2*(Sc)(c^T*H*c+const)(Sc)^T
  Precond_solver : DEFAULT
  stepsize       :    0.08000000                  energy_gap     :    0.08000000
  eps_taylor     :   0.10000E-15                  max_taylor     :             4
  ----------------------------------- OT ---------------------------------------

  Step     Update method      Time    Convergence         Total energy    Change
  ------------------------------------------------------------------------------
     1 OT DIIS     0.80E-01    0.4     0.00093813        -1.1342013490 -1.13E+00
     2 OT DIIS     0.80E-01    0.3     0.00078594        -1.1342026428 -1.29E-06
     3 OT DIIS     0.80E-01    0.3     0.00004659        -1.1342056923 -3.05E-06
     4 OT DIIS     0.80E-01    0.2     0.00000060        -1.1342057041 -1.18E-08
     5 OT DIIS     0.80E-01    0.2     0.00000046        -1.1342057041 -7.48E-13
     6 OT DIIS     0.80E-01    0.2     0.00000018        -1.1342057041 -9.27E-13
     7 OT SD       0.80E-01    0.2     0.00000002        -1.1342057041 -1.71E-13
     8 OT DIIS     0.80E-01    0.2     0.00000002        -1.1342057041 -4.44E-16
     9 OT DIIS     0.80E-01    0.2     7.2547E-11        -1.1342057041 -1.33E-15

  *** SCF run converged in     9 steps ***


  Electronic density on regular grids:         -1.9999999996        0.0000000004
  Core density on regular grids:                1.9999999999       -0.0000000001
  Total charge density on r-space grids:        0.0000000003
  Total charge density g-space grids:           0.0000000003

  Overlap energy of the core charge distribution:               0.00000023341113
  Self energy of the core charge distribution:                 -2.82094791773878
  Core Hamiltonian energy:                                      0.94715456047357
  Hartree energy:                                               1.38922676304897
  Exchange-correlation energy:                                 -0.64963934327107

  Total energy:                                                -1.13420570407619

  outer SCF iter =    1 RMS gradient =   0.73E-10 energy =         -1.1342057041
  outer SCF loop converged in   1 iterations or    9 steps


  Integrated absolute spin density  :                               0.0000000000
  Ideal and single determinant S**2 :                    0.000000       0.000000

 ENERGY| Total FORCE_EVAL ( QS ) energy [a.u.]:               -1.134205704076186

 Spin 1

 Number of electrons:                                                          1
 Number of occupied orbitals:                                                  1
 Number of molecular orbitals:                                                 1

 Spin 2

 Number of electrons:                                                          1
 Number of occupied orbitals:                                                  1
 Number of molecular orbitals:                                                 1

 Number of orbital functions:                                                 10
 Number of independent orbital functions:                                     10

 Parameters for the always stable predictor-corrector (ASPC) method:

  ASPC order: 1

  B(1) =   2.500000
  B(2) =  -2.000000
  B(3) =   0.500000

 Parameters for the always stable predictor-corrector (ASPC) method:

  ASPC order: 1

  B(1) =   2.500000
  B(2) =  -2.000000
  B(3) =   0.500000

 Extrapolation method: ASPC


 SCF WAVEFUNCTION OPTIMIZATION

  ----------------------------------- OT ---------------------------------------
  Minimizer      : DIIS                : direct inversion
                                         in the iterative subspace
                                         using   7 DIIS vectors
                                         safer DIIS on
  Preconditioner : FULL_SINGLE_INVERSE : inversion of 
                                         H + eS - 2*(Sc)(c^T*H*c+const)(Sc)^T
  Precond_solver : DEFAULT
  stepsize       :    0.08000000                  energy_gap     :    0.08000000
  eps_taylor     :   0.10000E-15                  max_taylor     :             4
  ----------------------------------- OT ---------------------------------------

  Step     Update method      Time    Convergence         Total energy    Change
  ------------------------------------------------------------------------------
     1 OT DIIS     0.80E-01    0.5     0.00138885        -1.1341804224 -1.13E+00
     2 OT DIIS     0.80E-01    0.2     0.00116342        -1.1341832581 -2.84E-06
     3 OT DIIS     0.80E-01    0.2     0.00006860        -1.1341899349 -6.68E-06
     4 OT DIIS     0.80E-01    0.2     0.00000136        -1.1341899605 -2.55E-08
     5 OT DIIS     0.80E-01    0.2     0.00000060        -1.1341899605 -7.50E-12
     6 OT DIIS     0.80E-01    0.2     0.00000002        -1.1341899605 -1.84E-12
     7 OT DIIS     0.80E-01    0.3     0.00000009        -1.1341899605  4.04E-14
     8 OT DIIS     0.80E-01    0.2     1.9422E-09        -1.1341899605 -4.17E-14

  *** SCF run converged in     8 steps ***


  Electronic density on regular grids:         -1.9999999996        0.0000000004
  Core density on regular grids:                1.9999999999       -0.0000000001
  Total charge density on r-space grids:        0.0000000003
  Total charge density g-space grids:           0.0000000003

  Overlap energy of the core charge distribution:               0.00000019231183
  Self energy of the core charge distribution:                 -2.82094791773878
  Core Hamiltonian energy:                                      0.94354713426272
  Hartree energy:                                               1.39136463474841
  Exchange-correlation energy:                                 -0.64815400408190

  Total energy:                                                -1.13418996049772

  outer SCF iter =    1 RMS gradient =   0.19E-08 energy =         -1.1341899605
  outer SCF loop converged in   1 iterations or    8 steps


  Integrated absolute spin density  :                               0.0000000000
  Ideal and single determinant S**2 :                    0.000000       0.000000

 ENERGY| Total FORCE_EVAL ( QS ) energy [a.u.]:               -1.134189960497719

 Spin 1

 Number of electrons:                                                          1
 Number of occupied orbitals:                                                  1
 Number of molecular orbitals:                                                 1

 Spin 2

 Number of electrons:                                                          1
 Number of occupied orbitals:                                                  1
 Number of molecular orbitals:                                                 1

 Number of orbital functions:                                                 10
 Number of independent orbital functions:                                     10

 Parameters for the always stable predictor-corrector (ASPC) method:

  ASPC order: 2

  B(1) =   2.800000
  B(2) =  -2.800000
  B(3) =   1.200000
  B(4) =  -0.200000

 Parameters for the always stable predictor-corrector (ASPC) method:

  ASPC order: 2

  B(1) =   2.800000
  B(2) =  -2.800000
  B(3) =   1.200000
  B(4) =  -0.200000

 Extrapolation method: ASPC


 SCF WAVEFUNCTION OPTIMIZATION

  ----------------------------------- OT ---------------------------------------
  Minimizer      : DIIS                : direct inversion
                                         in the iterative subspace
                                         using   7 DIIS vectors
                                         safer DIIS on
  Preconditioner : FULL_SINGLE_INVERSE : inversion of 
                                         H + eS - 2*(Sc)(c^T*H*c+const)(Sc)^T
  Precond_solver : DEFAULT
  stepsize       :    0.08000000                  energy_gap     :    0.08000000
  eps_taylor     :   0.10000E-15                  max_taylor     :             4
  ----------------------------------- OT ---------------------------------------

  Step     Update method      Time    Convergence         Total energy    Change
  ------------------------------------------------------------------------------
     1 OT DIIS     0.80E-01    0.5     0.00269420        -1.1341700670 -1.13E+00
     2 OT DIIS     0.80E-01    0.2     0.00225392        -1.1341807317 -1.07E-05
     3 OT DIIS     0.80E-01    0.2     0.00011894        -1.1342056268 -2.49E-05
     4 OT DIIS     0.80E-01    0.2     0.00000496        -1.1342057040 -7.72E-08
     5 OT DIIS     0.80E-01    0.2     0.00000118        -1.1342057041 -1.19E-10
     6 OT DIIS     0.80E-01    0.2     0.00000007        -1.1342057041 -7.08E-12
     7 OT DIIS     0.80E-01    0.2     0.00000011        -1.1342057041  4.31E-14
     8 OT DIIS     0.80E-01    0.2     0.00000001        -1.1342057041 -6.42E-14
     9 OT DIIS     0.80E-01    0.2     1.5875E-10        -1.1342057041 -6.66E-16

  *** SCF run converged in     9 steps ***


  Electronic density on regular grids:         -1.9999999996        0.0000000004
  Core density on regular grids:                1.9999999999       -0.0000000001
  Total charge density on r-space grids:        0.0000000003
  Total charge density g-space grids:           0.0000000003

  Overlap energy of the core charge distribution:               0.00000023341113
  Self energy of the core charge distribution:                 -2.82094791773878
  Core Hamiltonian energy:                                      0.94715456021392
  Hartree energy:                                               1.38922676323352
  Exchange-correlation energy:                                 -0.64963934319646

  Total energy:                                                -1.13420570407667

  outer SCF iter =    1 RMS gradient =   0.16E-09 energy =         -1.1342057041
  outer SCF loop converged in   1 iterations or    9 steps


  Integrated absolute spin density  :                               0.0000000000
  Ideal and single determinant S**2 :                    0.000000      -0.000000

 ENERGY| Total FORCE_EVAL ( QS ) energy [a.u.]:               -1.134205704076668

 Spin 1

 Number of electrons:                                                          1
 Number of occupied orbitals:                                                  1
 Number of molecular orbitals:                                                 1

 Spin 2

 Number of electrons:                                                          1
 Number of occupied orbitals:                                                  1
 Number of molecular orbitals:                                                 1

 Number of orbital functions:                                                 10
 Number of independent orbital functions:                                     10

 Parameters for the always stable predictor-corrector (ASPC) method:

  ASPC order: 3

  B(1) =   3.000000
  B(2) =  -3.428571
  B(3) =   1.928571
  B(4) =  -0.571429
  B(5) =   0.071429

 Parameters for the always stable predictor-corrector (ASPC) method:

  ASPC order: 3

  B(1) =   3.000000
  B(2) =  -3.428571
  B(3) =   1.928571
  B(4) =  -0.571429
  B(5) =   0.071429

 Extrapolation method: ASPC


 SCF WAVEFUNCTION OPTIMIZATION

  ----------------------------------- OT ---------------------------------------
  Minimizer      : DIIS                : direct inversion
                                         in the iterative subspace
                                         using   7 DIIS vectors
                                         safer DIIS on
  Preconditioner : FULL_SINGLE_INVERSE : inversion of 
                                         H + eS - 2*(Sc)(c^T*H*c+const)(Sc)^T
  Precond_solver : DEFAULT
  stepsize       :    0.08000000                  energy_gap     :    0.08000000
  eps_taylor     :   0.10000E-15                  max_taylor     :             4
  ----------------------------------- OT ---------------------------------------

  Step     Update method      Time    Convergence         Total energy    Change
  ------------------------------------------------------------------------------
     1 OT DIIS     0.80E-01    0.3     0.00314808        -1.1341570200 -1.13E+00
     2 OT DIIS     0.80E-01    0.2     0.00263410        -1.1341715819 -1.46E-05
     3 OT DIIS     0.80E-01    0.2     0.00014134        -1.1342055953 -3.40E-05
     4 OT DIIS     0.80E-01    0.2     0.00000763        -1.1342057038 -1.09E-07
     5 OT DIIS     0.80E-01    0.2     0.00000144        -1.1342057041 -2.85E-10
     6 OT DIIS     0.80E-01    0.2     0.00000118        -1.1342057041 -3.41E-12
     7 OT SD       0.80E-01    0.2     0.00000025        -1.1342057041 -6.75E-12
     8 OT DIIS     0.80E-01    0.2     0.00000021        -1.1342057041 -9.15E-14
     9 OT DIIS     0.80E-01    0.2     0.00000001        -1.1342057041 -2.24E-13
    10 OT DIIS     0.80E-01    0.2     1.5504E-12        -1.1342057041 -1.11E-15

  *** SCF run converged in    10 steps ***


  Electronic density on regular grids:         -1.9999999996        0.0000000004
  Core density on regular grids:                1.9999999999       -0.0000000001
  Total charge density on r-space grids:        0.0000000003
  Total charge density g-space grids:           0.0000000003

  Overlap energy of the core charge distribution:               0.00000023341113
  Self energy of the core charge distribution:                 -2.82094791773878
  Core Hamiltonian energy:                                      0.94715456069234
  Hartree energy:                                               1.38922676289289
  Exchange-correlation energy:                                 -0.64963934333424

  Total energy:                                                -1.13420570407667

  outer SCF iter =    1 RMS gradient =   0.16E-11 energy =         -1.1342057041
  outer SCF loop converged in   1 iterations or   10 steps


  Integrated absolute spin density  :                               0.0000000000
  Ideal and single determinant S**2 :                    0.000000       0.000000

 ENERGY| Total FORCE_EVAL ( QS ) energy [a.u.]:               -1.134205704076667

 Spin 1

 Number of electrons:                                                          1
 Number of occupied orbitals:                                                  1
 Number of molecular orbitals:                                                 1

 Spin 2

 Number of electrons:                                                          1
 Number of occupied orbitals:                                                  1
 Number of molecular orbitals:                                                 1

 Number of orbital functions:                                                 10
 Number of independent orbital functions:                                     10

 Parameters for the always stable predictor-corrector (ASPC) method:

  ASPC order: 3

  B(1) =   3.000000
  B(2) =  -3.428571
  B(3) =   1.928571
  B(4) =  -0.571429
  B(5) =   0.071429

 Parameters for the always stable predictor-corrector (ASPC) method:

  ASPC order: 3

  B(1) =   3.000000
  B(2) =  -3.428571
  B(3) =   1.928571
  B(4) =  -0.571429
  B(5) =   0.071429

 Extrapolation method: ASPC


 SCF WAVEFUNCTION OPTIMIZATION

  ----------------------------------- OT ---------------------------------------
  Minimizer      : DIIS                : direct inversion
                                         in the iterative subspace
                                         using   7 DIIS vectors
                                         safer DIIS on
  Preconditioner : FULL_SINGLE_INVERSE : inversion of 
                                         H + eS - 2*(Sc)(c^T*H*c+const)(Sc)^T
  Precond_solver : DEFAULT
  stepsize       :    0.08000000                  energy_gap     :    0.08000000
  eps_taylor     :   0.10000E-15                  max_taylor     :             4
  ----------------------------------- OT ---------------------------------------

  Step     Update method      Time    Convergence         Total energy    Change
  ------------------------------------------------------------------------------
     1 OT DIIS     0.80E-01    0.2     0.00102168        -1.1341846401 -1.13E+00
     2 OT DIIS     0.80E-01    0.2     0.00086160        -1.1341861793 -1.54E-06
     3 OT DIIS     0.80E-01    0.2     0.00006433        -1.1341899756 -3.80E-06
     4 OT SD       0.80E-01    0.2     0.00000058        -1.1341899975 -2.19E-08
     5 OT DIIS     0.80E-01    0.2     0.00000049        -1.1341899975 -4.92E-13
     6 OT DIIS     0.80E-01    0.2     0.00000001        -1.1341899975 -1.20E-12
     7 OT DIIS     0.80E-01    0.2     0.00000004        -1.1341899975  7.99E-15
     8 OT DIIS     0.80E-01    0.2     6.4078E-09        -1.1341899975 -9.33E-15

  *** SCF run converged in     8 steps ***


  Electronic density on regular grids:         -1.9999999996        0.0000000004
  Core density on regular grids:                1.9999999999       -0.0000000001
  Total charge density on r-space grids:        0.0000000003
  Total charge density g-space grids:           0.0000000003

  Overlap energy of the core charge distribution:               0.00000019231183
  Self energy of the core charge distribution:                 -2.82094791773878
  Core Hamiltonian energy:                                      0.94354711942421
  Hartree energy:                                               1.39136460839133
  Exchange-correlation energy:                                 -0.64815399990032

  Total energy:                                                -1.13418999751174

  outer SCF iter =    1 RMS gradient =   0.64E-08 energy =         -1.1341899975
  outer SCF loop converged in   1 iterations or    8 steps


  Integrated absolute spin density  :                               0.0000000000
  Ideal and single determinant S**2 :                    0.000000      -0.000000

 ENERGY| Total FORCE_EVAL ( QS ) energy [a.u.]:               -1.134189997511740

 Spin 1

 Number of electrons:                                                          1
 Number of occupied orbitals:                                                  1
 Number of molecular orbitals:                                                 1

 Spin 2

 Number of electrons:                                                          1
 Number of occupied orbitals:                                                  1
 Number of molecular orbitals:                                                 1

 Number of orbital functions:                                                 10
 Number of independent orbital functions:                                     10

 Parameters for the always stable predictor-corrector (ASPC) method:

  ASPC order: 3

  B(1) =   3.000000
  B(2) =  -3.428571
  B(3) =   1.928571
  B(4) =  -0.571429
  B(5) =   0.071429

 Parameters for the always stable predictor-corrector (ASPC) method:

  ASPC order: 3

  B(1) =   3.000000
  B(2) =  -3.428571
  B(3) =   1.928571
  B(4) =  -0.571429
  B(5) =   0.071429

 Extrapolation method: ASPC


 SCF WAVEFUNCTION OPTIMIZATION

  ----------------------------------- OT ---------------------------------------
  Minimizer      : DIIS                : direct inversion
                                         in the iterative subspace
                                         using   7 DIIS vectors
                                         safer DIIS on
  Preconditioner : FULL_SINGLE_INVERSE : inversion of 
                                         H + eS - 2*(Sc)(c^T*H*c+const)(Sc)^T
  Precond_solver : DEFAULT
  stepsize       :    0.08000000                  energy_gap     :    0.08000000
  eps_taylor     :   0.10000E-15                  max_taylor     :             4
  ----------------------------------- OT ---------------------------------------

  Step     Update method      Time    Convergence         Total energy    Change
  ------------------------------------------------------------------------------
     1 OT DIIS     0.80E-01    0.3     0.00219390        -1.1341820238 -1.13E+00
     2 OT DIIS     0.80E-01    0.2     0.00183607        -1.1341890967 -7.07E-06
     3 OT DIIS     0.80E-01    0.2     0.00010034        -1.1342056491 -1.66E-05
     4 OT DIIS     0.80E-01    0.2     0.00000327        -1.1342057040 -5.49E-08
     5 OT DIIS     0.80E-01    0.2     0.00000098        -1.1342057041 -4.97E-11
     6 OT DIIS     0.80E-01    0.2     0.00000012        -1.1342057041 -4.89E-12
     7 OT DIIS     0.80E-01    0.2     0.00000013        -1.1342057041  4.66E-15
     8 OT DIIS     0.80E-01    0.2     0.00000004        -1.1342057041 -7.19E-14
     9 OT DIIS     0.80E-01    0.3     1.8067E-09        -1.1342057041 -1.02E-14

  *** SCF run converged in     9 steps ***


  Electronic density on regular grids:         -1.9999999996        0.0000000004
  Core density on regular grids:                1.9999999999       -0.0000000001
  Total charge density on r-space grids:        0.0000000003
  Total charge density g-space grids:           0.0000000003

  Overlap energy of the core charge distribution:               0.00000023341113
  Self energy of the core charge distribution:                 -2.82094791773878
  Core Hamiltonian energy:                                      0.94715455527188
  Hartree energy:                                               1.38922676674948
  Exchange-correlation energy:                                 -0.64963934176989

  Total energy:                                                -1.13420570407619

  outer SCF iter =    1 RMS gradient =   0.18E-08 energy =         -1.1342057041
  outer SCF loop converged in   1 iterations or    9 steps


  Integrated absolute spin density  :                               0.0000000000
  Ideal and single determinant S**2 :                    0.000000      -0.000000

 ENERGY| Total FORCE_EVAL ( QS ) energy [a.u.]:               -1.134205704076186

 Spin 1

 Number of electrons:                                                          1
 Number of occupied orbitals:                                                  1
 Number of molecular orbitals:                                                 1

 Spin 2

 Number of electrons:                                                          1
 Number of occupied orbitals:                                                  1
 Number of molecular orbitals:                                                 1

 Number of orbital functions:                                                 10
 Number of independent orbital functions:                                     10

 Parameters for the always stable predictor-corrector (ASPC) method:

  ASPC order: 3

  B(1) =   3.000000
  B(2) =  -3.428571
  B(3) =   1.928571
  B(4) =  -0.571429
  B(5) =   0.071429

 Parameters for the always stable predictor-corrector (ASPC) method:

  ASPC order: 3

  B(1) =   3.000000
  B(2) =  -3.428571
  B(3) =   1.928571
  B(4) =  -0.571429
  B(5) =   0.071429

 Extrapolation method: ASPC


 SCF WAVEFUNCTION OPTIMIZATION

  ----------------------------------- OT ---------------------------------------
  Minimizer      : DIIS                : direct inversion
                                         in the iterative subspace
                                         using   7 DIIS vectors
                                         safer DIIS on
  Preconditioner : FULL_SINGLE_INVERSE : inversion of 
                                         H + eS - 2*(Sc)(c^T*H*c+const)(Sc)^T
  Precond_solver : DEFAULT
  stepsize       :    0.08000000                  energy_gap     :    0.08000000
  eps_taylor     :   0.10000E-15                  max_taylor     :             4
  ----------------------------------- OT ---------------------------------------

  Step     Update method      Time    Convergence         Total energy    Change
  ------------------------------------------------------------------------------
     1 OT DIIS     0.80E-01    0.3     0.00298907        -1.1341619452 -1.13E+00
     2 OT DIIS     0.80E-01    0.2     0.00249971        -1.1341750700 -1.31E-05
     3 OT DIIS     0.80E-01    0.2     0.00012715        -1.1342056159 -3.05E-05
     4 OT DIIS     0.80E-01    0.2     0.00000699        -1.1342057038 -8.80E-08
     5 OT DIIS     0.80E-01    0.2     0.00000135        -1.1342057041 -2.39E-10
     6 OT DIIS     0.80E-01    0.2     0.00000007        -1.1342057041 -9.24E-12
     7 OT DIIS     0.80E-01    0.2     5.5391E-09        -1.1342057041 -2.29E-14

  *** SCF run converged in     7 steps ***


  Electronic density on regular grids:         -1.9999999996        0.0000000004
  Core density on regular grids:                1.9999999999       -0.0000000001
  Total charge density on r-space grids:        0.0000000003
  Total charge density g-space grids:           0.0000000003

  Overlap energy of the core charge distribution:               0.00000023341113
  Self energy of the core charge distribution:                 -2.82094791773878
  Core Hamiltonian energy:                                      0.94715457744459
  Hartree energy:                                               1.38922675099761
  Exchange-correlation energy:                                 -0.64963934819074

  Total energy:                                                -1.13420570407618

  outer SCF iter =    1 RMS gradient =   0.55E-08 energy =         -1.1342057041
  outer SCF loop converged in   1 iterations or    7 steps


  Integrated absolute spin density  :                               0.0000000000
  Ideal and single determinant S**2 :                    0.000000       0.000000

 ENERGY| Total FORCE_EVAL ( QS ) energy [a.u.]:               -1.134205704075836

 Spin 1

 Number of electrons:                                                          1
 Number of occupied orbitals:                                                  1
 Number of molecular orbitals:                                                 1

 Spin 2

 Number of electrons:                                                          1
 Number of occupied orbitals:                                                  1
 Number of molecular orbitals:                                                 1

 Number of orbital functions:                                                 10
 Number of independent orbital functions:                                     10

 Parameters for the always stable predictor-corrector (ASPC) method:

  ASPC order: 3

  B(1) =   3.000000
  B(2) =  -3.428571
  B(3) =   1.928571
  B(4) =  -0.571429
  B(5) =   0.071429

 Parameters for the always stable predictor-corrector (ASPC) method:

  ASPC order: 3

  B(1) =   3.000000
  B(2) =  -3.428571
  B(3) =   1.928571
  B(4) =  -0.571429
  B(5) =   0.071429

 Extrapolation method: ASPC


 SCF WAVEFUNCTION OPTIMIZATION

  ----------------------------------- OT ---------------------------------------
  Minimizer      : DIIS                : direct inversion
                                         in the iterative subspace
                                         using   7 DIIS vectors
                                         safer DIIS on
  Preconditioner : FULL_SINGLE_INVERSE : inversion of 
                                         H + eS - 2*(Sc)(c^T*H*c+const)(Sc)^T
  Precond_solver : DEFAULT
  stepsize       :    0.08000000                  energy_gap     :    0.08000000
  eps_taylor     :   0.10000E-15                  max_taylor     :             4
  ----------------------------------- OT ---------------------------------------

  Step     Update method      Time    Convergence         Total energy    Change
  ------------------------------------------------------------------------------
     1 OT DIIS     0.80E-01    0.4     0.00265538        -1.1341527709 -1.13E+00
     2 OT DIIS     0.80E-01    0.2     0.00222203        -1.1341631317 -1.04E-05
     3 OT DIIS     0.80E-01    0.2     0.00011981        -1.1341873611 -2.42E-05
     4 OT DIIS     0.80E-01    0.2     0.00000486        -1.1341874394 -7.83E-08
     5 OT DIIS     0.80E-01    0.2     0.00000114        -1.1341874395 -1.14E-10
     6 OT DIIS     0.80E-01    0.2     0.00000014        -1.1341874395 -6.59E-12
     7 OT SD       0.80E-01    0.2     0.00000011        -1.1341874395 -4.15E-14
     8 OT DIIS     0.80E-01    0.2     0.00000009        -1.1341874395 -1.84E-14
     9 OT DIIS     0.80E-01    0.2     0.00000002        -1.1341874395 -3.80E-14
    10 OT DIIS     0.80E-01    0.2     3.3272E-13        -1.1341874395  1.07E-14

  *** SCF run converged in    10 steps ***


  Electronic density on regular grids:         -1.9999999996        0.0000000004
  Core density on regular grids:                1.9999999999       -0.0000000001
  Total charge density on r-space grids:        0.0000000003
  Total charge density g-space grids:           0.0000000003

  Overlap energy of the core charge distribution:               0.00000028334498
  Self energy of the core charge distribution:                 -2.82094791773878
  Core Hamiltonian energy:                                      0.95082852599374
  Hartree energy:                                               1.38707845074976
  Exchange-correlation energy:                                 -0.65114678187539

  Total energy:                                                -1.13418743952569

  outer SCF iter =    1 RMS gradient =   0.33E-12 energy =         -1.1341874395
  outer SCF loop converged in   1 iterations or   10 steps


  Integrated absolute spin density  :                               0.0000000000
  Ideal and single determinant S**2 :                    0.000000       0.000000

 ENERGY| Total FORCE_EVAL ( QS ) energy [a.u.]:               -1.134187439525699

 Spin 1

 Number of electrons:                                                          1
 Number of occupied orbitals:                                                  1
 Number of molecular orbitals:                                                 1

 Spin 2

 Number of electrons:                                                          1
 Number of occupied orbitals:                                                  1
 Number of molecular orbitals:                                                 1

 Number of orbital functions:                                                 10
 Number of independent orbital functions:                                     10

 Parameters for the always stable predictor-corrector (ASPC) method:

  ASPC order: 3

  B(1) =   3.000000
  B(2) =  -3.428571
  B(3) =   1.928571
  B(4) =  -0.571429
  B(5) =   0.071429

 Parameters for the always stable predictor-corrector (ASPC) method:

  ASPC order: 3

  B(1) =   3.000000
  B(2) =  -3.428571
  B(3) =   1.928571
  B(4) =  -0.571429
  B(5) =   0.071429

 Extrapolation method: ASPC


 SCF WAVEFUNCTION OPTIMIZATION

  ----------------------------------- OT ---------------------------------------
  Minimizer      : DIIS                : direct inversion
                                         in the iterative subspace
                                         using   7 DIIS vectors
                                         safer DIIS on
  Preconditioner : FULL_SINGLE_INVERSE : inversion of 
                                         H + eS - 2*(Sc)(c^T*H*c+const)(Sc)^T
  Precond_solver : DEFAULT
  stepsize       :    0.08000000                  energy_gap     :    0.08000000
  eps_taylor     :   0.10000E-15                  max_taylor     :             4
  ----------------------------------- OT ---------------------------------------

  Step     Update method      Time    Convergence         Total energy    Change
  ------------------------------------------------------------------------------
     1 OT DIIS     0.80E-01    0.3     0.00324407        -1.1341540294 -1.13E+00
     2 OT DIIS     0.80E-01    0.2     0.00271420        -1.1341694923 -1.55E-05
     3 OT DIIS     0.80E-01    0.2     0.00014453        -1.1342055903 -3.61E-05
     4 OT DIIS     0.80E-01    0.2     0.00000815        -1.1342057037 -1.13E-07
     5 OT DIIS     0.80E-01    0.2     0.00000149        -1.1342057041 -3.26E-10
     6 OT DIIS     0.80E-01    0.2     0.00000065        -1.1342057041 -9.10E-12
     7 OT DIIS     0.80E-01    0.2     0.00000023        -1.1342057041 -1.90E-12
     8 OT DIIS     0.80E-01    0.2     0.00000062        -1.1342057041  1.69E-12
     9 OT DIIS     0.80E-01    0.2     3.6884E-09        -1.1342057041 -1.95E-12

  *** SCF run converged in     9 steps ***


  Electronic density on regular grids:         -1.9999999996        0.0000000004
  Core density on regular grids:                1.9999999999       -0.0000000001
  Total charge density on r-space grids:        0.0000000003
  Total charge density g-space grids:           0.0000000003

  Overlap energy of the core charge distribution:               0.00000023341113
  Self energy of the core charge distribution:                 -2.82094791773878
  Core Hamiltonian energy:                                      0.94715454958383
  Hartree energy:                                               1.38922677078754
  Exchange-correlation energy:                                 -0.64963934012038

  Total energy:                                                -1.13420570407667

  outer SCF iter =    1 RMS gradient =   0.37E-08 energy =         -1.1342057041
  outer SCF loop converged in   1 iterations or    9 steps


  Integrated absolute spin density  :                               0.0000000000
  Ideal and single determinant S**2 :                    0.000000       0.000000

 ENERGY| Total FORCE_EVAL ( QS ) energy [a.u.]:               -1.134205704076668

 Spin 1

 Number of electrons:                                                          1
 Number of occupied orbitals:                                                  1
 Number of molecular orbitals:                                                 1

 Spin 2

 Number of electrons:                                                          1
 Number of occupied orbitals:                                                  1
 Number of molecular orbitals:                                                 1

 Number of orbital functions:                                                 10
 Number of independent orbital functions:                                     10

 Parameters for the always stable predictor-corrector (ASPC) method:

  ASPC order: 3

  B(1) =   3.000000
  B(2) =  -3.428571
  B(3) =   1.928571
  B(4) =  -0.571429
  B(5) =   0.071429

 Parameters for the always stable predictor-corrector (ASPC) method:

  ASPC order: 3

  B(1) =   3.000000
  B(2) =  -3.428571
  B(3) =   1.928571
  B(4) =  -0.571429
  B(5) =   0.071429

 Extrapolation method: ASPC


 SCF WAVEFUNCTION OPTIMIZATION

  ----------------------------------- OT ---------------------------------------
  Minimizer      : DIIS                : direct inversion
                                         in the iterative subspace
                                         using   7 DIIS vectors
                                         safer DIIS on
  Preconditioner : FULL_SINGLE_INVERSE : inversion of 
                                         H + eS - 2*(Sc)(c^T*H*c+const)(Sc)^T
  Precond_solver : DEFAULT
  stepsize       :    0.08000000                  energy_gap     :    0.08000000
  eps_taylor     :   0.10000E-15                  max_taylor     :             4
  ----------------------------------- OT ---------------------------------------

  Step     Update method      Time    Convergence         Total energy    Change
  ------------------------------------------------------------------------------
     1 OT DIIS     0.80E-01    0.2     0.00319278        -1.1341556155 -1.13E+00
     2 OT DIIS     0.80E-01    0.2     0.00267140        -1.1341705936 -1.50E-05
     3 OT DIIS     0.80E-01    0.2     0.00014288        -1.1342055926 -3.50E-05
     4 OT DIIS     0.80E-01    0.2     0.00000684        -1.1342057038 -1.11E-07
     5 OT DIIS     0.80E-01    0.2     0.00000138        -1.1342057041 -2.30E-10
     6 OT DIIS     0.80E-01    0.2     0.00000422        -1.1342057040  8.17E-11
     7 OT DIIS     0.80E-01    0.2     0.00000019        -1.1342057041 -9.13E-11
     8 OT DIIS     0.80E-01    0.2     0.00000005        -1.1342057041 -1.67E-13
     9 OT DIIS     0.80E-01    0.2     3.6922E-11        -1.1342057041 -1.40E-14

  *** SCF run converged in     9 steps ***


  Electronic density on regular grids:         -1.9999999996        0.0000000004
  Core density on regular grids:                1.9999999999       -0.0000000001
  Total charge density on r-space grids:        0.0000000003
  Total charge density g-space grids:           0.0000000003

  Overlap energy of the core charge distribution:               0.00000023341113
  Self energy of the core charge distribution:                 -2.82094791773878
  Core Hamiltonian energy:                                      0.94715456058340
  Hartree energy:                                               1.38922676297111
  Exchange-correlation energy:                                 -0.64963934330353

  Total energy:                                                -1.13420570407667

  outer SCF iter =    1 RMS gradient =   0.37E-10 energy =         -1.1342057041
  outer SCF loop converged in   1 iterations or    9 steps


  Integrated absolute spin density  :                               0.0000000000
  Ideal and single determinant S**2 :                    0.000000       0.000000

 ENERGY| Total FORCE_EVAL ( QS ) energy [a.u.]:               -1.134205704076668

 Spin 1

 Number of electrons:                                                          1
 Number of occupied orbitals:                                                  1
 Number of molecular orbitals:                                                 1

 Spin 2

 Number of electrons:                                                          1
 Number of occupied orbitals:                                                  1
 Number of molecular orbitals:                                                 1

 Number of orbital functions:                                                 10
 Number of independent orbital functions:                                     10

 Parameters for the always stable predictor-corrector (ASPC) method:

  ASPC order: 3

  B(1) =   3.000000
  B(2) =  -3.428571
  B(3) =   1.928571
  B(4) =  -0.571429
  B(5) =   0.071429

 Parameters for the always stable predictor-corrector (ASPC) method:

  ASPC order: 3

  B(1) =   3.000000
  B(2) =  -3.428571
  B(3) =   1.928571
  B(4) =  -0.571429
  B(5) =   0.071429

 Extrapolation method: ASPC


 SCF WAVEFUNCTION OPTIMIZATION

  ----------------------------------- OT ---------------------------------------
  Minimizer      : DIIS                : direct inversion
                                         in the iterative subspace
                                         using   7 DIIS vectors
                                         safer DIIS on
  Preconditioner : FULL_SINGLE_INVERSE : inversion of 
                                         H + eS - 2*(Sc)(c^T*H*c+const)(Sc)^T
  Precond_solver : DEFAULT
  stepsize       :    0.08000000                  energy_gap     :    0.08000000
  eps_taylor     :   0.10000E-15                  max_taylor     :             4
  ----------------------------------- OT ---------------------------------------

  Step     Update method      Time    Convergence         Total energy    Change
  ------------------------------------------------------------------------------
     1 OT DIIS     0.80E-01    0.4     0.00183108        -1.1341890415 -1.13E+00
     2 OT DIIS     0.80E-01    0.2     0.00153507        -1.1341939723 -4.93E-06
     3 OT DIIS     0.80E-01    0.2     0.00009489        -1.1342056434 -1.17E-05
     4 OT DIIS     0.80E-01    0.2     0.00000236        -1.1342056922 -4.88E-08
     5 OT DIIS     0.80E-01    0.2     0.00000080        -1.1342056922 -2.49E-11
     6 OT DIIS     0.80E-01    0.2     0.00000020        -1.1342056922 -3.06E-12
     7 OT SD       0.80E-01    0.3     0.00000013        -1.1342056922 -1.30E-13
     8 OT DIIS     0.80E-01    0.2     0.00000011        -1.1342056922 -2.26E-14
     9 OT DIIS     0.80E-01    0.2     0.00000002        -1.1342056922 -5.82E-14
    10 OT DIIS     0.80E-01    0.2     1.5180E-11        -1.1342056922 -1.40E-14

  *** SCF run converged in    10 steps ***


  Electronic density on regular grids:         -1.9999999996        0.0000000004
  Core density on regular grids:                1.9999999999       -0.0000000001
  Total charge density on r-space grids:        0.0000000003
  Total charge density g-space grids:           0.0000000003

  Overlap energy of the core charge distribution:               0.00000023356791
  Self energy of the core charge distribution:                 -2.82094791773878
  Core Hamiltonian energy:                                      0.94716717648297
  Hartree energy:                                               1.38921934397147
  Exchange-correlation energy:                                 -0.64964452849642

  Total energy:                                                -1.13420569221285

  outer SCF iter =    1 RMS gradient =   0.15E-10 energy =         -1.1342056922
  outer SCF loop converged in   1 iterations or   10 steps


  Integrated absolute spin density  :                               0.0000000000
  Ideal and single determinant S**2 :                    0.000000      -0.000000

 ENERGY| Total FORCE_EVAL ( QS ) energy [a.u.]:               -1.134205692212844

 -------------------------------------------------------------------------------
 ----                             MULTIGRID INFO                            ----
 -------------------------------------------------------------------------------
 count for grid        1:            542          cutoff [a.u.]          170.00
 count for grid        2:            514          cutoff [a.u.]           56.67
 count for grid        3:            492          cutoff [a.u.]           18.89
 count for grid        4:              8          cutoff [a.u.]            6.30
 total gridlevel count  :           1556

 -------------------------------------------------------------------------------
 -                                                                             -
 -                           R E F E R E N C E S                               -
 -                                                                             -
 -------------------------------------------------------------------------------
 
 CP2K version 9.1, the CP2K developers group (2021).
 CP2K is freely available from https://www.cp2k.org/ .

 Kuehne,Thomas D.; Iannuzzi,Marcella; Del Ben,Mauro;
 Rybkin,Vladimir V.; Seewald,Patrick; Stein,Frederick; Laino,Teodoro;
 Khaliullin,Rustam Z.; Schuett,Ole; Schiffmann,Florian; Golze,Dorothea;
 Wilhelm,Jan; Chulkov,Sergey; Bani-Hashemian,Mohammad Hossein;
 Weber,Valery; Borstnik,Urban; Taillefumier,Mathieu;
 Jakobovits,Alice Shoshana; Lazzaro,Alfio; Pabst,Hans; Mueller,Tiziano;
 Schade,Robert; Guidon,Manuel; Andermatt,Samuel; Holmberg,Nico;
 Schenter,Gregory K.; Hehn,Anna; Bussy,Augustin; Belleflamme,Fabian;
 Tabacchi,Gloria; Gloess,Andreas; Lass,Michael; Bethune,Iain;
 Mundy,Christopher J.; Plessl,Christian; Watkins,Matt;
 VandeVondele,Joost; Krack,Matthias; Hutter,Juerg. 
 The Journal of Chemical Physics, 152 (19), (2020). 
 CP2K: An electronic structure and molecular dynamics software package -
 Quickstep: Efficient and accurate electronic structure calculations.
 https://doi.org/10.1063/5.0007045

 Schuett, Ole; Messmer, Peter; Hutter, Juerg; VandeVondele, Joost. 
 Electronic Structure Calculations on Graphics Processing Units, John
 Wiley & Sons, Ltd, 173-190 (2016). 
 GPU-Accelerated Sparse Matrix-Matrix Multiplication for
 Linear Scaling Density Functional Theory.
 https://doi.org/10.1002/9781118670712.ch8

 Heinecke, A; Henry, G; Hutchinson, M; Pabst, H. 
 Proceedings of Intl. Supercomputing Conference, 981-991 (2016). 
 LIBXSMM: Accelerating Small Matrix Multiplications
 by Runtime Code Generation.
 https://doi.org/10.1109/SC.2016.83

 Borstnik, U; VandeVondele, J; Weber, V; Hutter, J. 
 PARALLEL COMPUTING, 40 (5-6), 47-58 (2014). 
 Sparse matrix multiplication: The distributed block-compressed sparse
 row library.
 https://doi.org/10.1016/j.parco.2014.03.012

 Hutter, J; Iannuzzi, M; Schiffmann, F; VandeVondele, J. 
 WIREs Comput Mol Sci., 4 (1), 15-25 (2014). 
 CP2K: atomistic simulations of condensed matter systems.
 https://doi.org/10.1002/wcms.1159

 Kuhne, TD; Krack, M; Mohamed, FR; Parrinello, M. 
 PHYSICAL REVIEW LETTERS, 98 (6), 066401 (2007). 
 Efficient and accurate Car-Parrinello-like approach to
 Born-Oppenheimer molecular dynamics.
 https://doi.org/10.1103/PhysRevLett.98.066401

 Krack, M. 
 THEORETICAL CHEMISTRY ACCOUNTS, 114 (1-3), 145-152 (2005). 
 Pseudopotentials for H to Kr optimized for gradient-corrected
 exchange-correlation functionals.
 https://doi.org/10.1007/s00214-005-0655-y

 VandeVondele, J; Krack, M; Mohamed, F; Parrinello, M; Chassaing, T;
 Hutter, J. COMPUTER PHYSICS COMMUNICATIONS, 167 (2), 103-128 (2005). 
 QUICKSTEP: Fast and accurate density functional calculations using a
 mixed Gaussian and plane waves approach.
 https://doi.org/10.1016/j.cpc.2004.12.014

 Frigo, M; Johnson, SG. 
 PROCEEDINGS OF THE IEEE, 93 (2), 216-231 (2005). 
 The design and implementation of FFTW3.
 https://doi.org/10.1109/JPROC.2004.840301

 Kolafa, J. 
 JOURNAL OF COMPUTATIONAL CHEMISTRY, 25 (3), 335-342 (2004). 
 Time-reversible always stable predictor-corrector method for
 molecular dynamics of polarizable molecules.
 https://doi.org/10.1002/jcc.10385

 VandeVondele, J; Hutter, J. 
 JOURNAL OF CHEMICAL PHYSICS, 118 (10), 4365-4369 (2003). 
 An efficient orbital transformation method for electronic structure
 calculations.
 https://doi.org/10.1063/1.1543154

 Hartwigsen, C; Goedecker, S; Hutter, J. 
 PHYSICAL REVIEW B, 58 (7), 3641-3662 (1998). 
 Relativistic separable dual-space Gaussian pseudopotentials from H to Rn.
 https://doi.org/10.1103/PhysRevB.58.3641

 Lippert, G; Hutter, J; Parrinello, M. 
 MOLECULAR PHYSICS, 92 (3), 477-487 (1997). 
 A hybrid Gaussian and plane wave density functional scheme.
 https://doi.org/10.1080/002689797170220

 Goedecker, S; Teter, M; Hutter, J. 
 PHYSICAL REVIEW B, 54 (3), 1703-1710 (1996). 
 Separable dual-space Gaussian pseudopotentials.
 https://doi.org/10.1103/PhysRevB.54.1703


 -------------------------------------------------------------------------------
 -                                                                             -
 -                                T I M I N G                                  -
 -                                                                             -
 -------------------------------------------------------------------------------
 SUBROUTINE                       CALLS  ASD         SELF TIME        TOTAL TIME
                                MAXIMUM       AVERAGE  MAXIMUM  AVERAGE  MAXIMUM
 CP2K                                 1  1.0    0.013    0.013   34.143   34.143
 rep_env_calc_e_f                    13  2.0    0.002    0.002   33.973   33.973
 qs_forces                           13  3.0    0.001    0.001   33.971   33.971
 qs_energies                         13  4.0    0.001    0.001   31.737   31.737
 scf_env_do_scf                      13  5.0    0.001    0.001   28.748   28.748
 scf_env_do_scf_inner_loop          117  6.0    0.010    0.010   24.904   24.904
 rebuild_ks_matrix                  130  7.7    0.001    0.001   14.165   14.165
 qs_ks_build_kohn_sham_matrix       130  8.7    0.015    0.015   14.165   14.165
 qs_rho_update_rho                  130  7.1    0.001    0.001   13.133   13.133
 calculate_rho_elec                 260  8.1    1.511    1.511   13.132   13.132
 pw_transfer                       2743 11.1    0.146    0.146   12.652   12.652
 fft_wrap_pw1pw2                   2483 12.2    0.018    0.018   12.183   12.183
 qs_ks_update_qs_env                130  7.0    0.001    0.001   11.952   11.952
 fft_wrap_pw1pw2_170                923 12.7    0.886    0.886   10.855   10.855
 density_rs2pw                      260  9.1    0.013    0.013    7.956    7.956
 fft3d_s                           2484 14.1    7.862    7.862    7.874    7.874
 sum_up_and_integrate               130  9.7    0.308    0.308    5.153    5.153
 integrate_v_rspace                 260 10.7    0.010    0.010    4.845    4.845
 potential_pw2rs                    260 11.7    0.084    0.084    4.627    4.627
 qs_vxc_create                      130  9.7    0.002    0.002    4.466    4.466
 xc_vxc_pw_create                   130 10.7    0.621    0.621    4.464    4.464
 xc_rho_set_and_dset_create         130 11.7    0.007    0.007    3.842    3.842
 init_scf_loop                       13  6.0    0.000    0.000    3.834    3.834
 qs_scf_new_mos                     117  7.0    0.001    0.001    3.704    3.704
 qs_scf_loop_do_ot                  117  8.0    0.001    0.001    3.703    3.703
 grid_collocate_task_list           260  9.1    3.665    3.665    3.665    3.665
 xc_functional_eval                 130 12.7    3.652    3.652    3.652    3.652
 ot_scf_mini                        117  9.0    0.003    0.003    3.529    3.529
 dbcsr_multiply_generic            4743 11.8    0.172    0.172    3.211    3.211
 init_scf_run                        13  5.0    0.001    0.001    2.583    2.583
 scf_env_initial_rho_setup           13  6.0    0.000    0.000    2.583    2.583
 ot_mini                            117 10.0    0.001    0.001    2.498    2.498
 pw_poisson_solve                   130  9.7    0.480    0.480    2.411    2.411
 wfi_extrapolate                     13  7.0    0.002    0.002    2.327    2.327
 qs_ks_update_qs_env_forces          13  4.0    0.000    0.000    2.217    2.217
 qs_ot_get_derivative               234 11.0    0.002    0.002    2.145    2.145
 prepare_preconditioner              13  7.0    0.000    0.000    1.900    1.900
 make_preconditioner                 26  8.0    0.000    0.000    1.900    1.900
 pw_gather_s                       1313 13.6    1.805    1.805    1.805    1.805
 make_full_single_inverse            26  9.0    0.001    0.001    1.773    1.773
 arnoldi_generalized_ev              26 10.0    0.000    0.000    1.683    1.683
 dbcsr_add_d                       4759 12.1    0.006    0.006    1.586    1.586
 dbcsr_add_anytype                 4759 13.1    0.472    0.472    1.580    1.580
 gev_update_data                     26 11.0    0.000    0.000    1.580    1.580
 pw_integral_ab                     208  9.7    1.463    1.463    1.463    1.463
 pw_scatter_s                      1170 14.8    1.440    1.440    1.440    1.440
 make_m2s                          9486 12.8    0.088    0.088    1.419    1.419
 qs_ot_get_derivative_taylor        212 12.0    0.005    0.005    1.220    1.220
 pw_copy                           1742 12.2    1.095    1.095    1.095    1.095
 dbcsr_iterator_start             56452 15.0    1.033    1.033    1.067    1.067
 dbcsr_finalize                   11599 13.2    0.121    0.121    0.975    0.975
 fft_wrap_pw1pw2_60                 520 13.4    0.092    0.092    0.975    0.975
 pw_axpy                           1313 10.0    0.830    0.830    0.830    0.830
 make_images                       9486 13.8    0.241    0.241    0.724    0.724
 dbcsr_create_new                 54705 14.2    0.495    0.495    0.714    0.714
 -------------------------------------------------------------------------------

 The number of warnings for this run is : 0
 
 -------------------------------------------------------------------------------
  **** **** ******  **  PROGRAM ENDED AT                 2022-06-06 20:15:08.731
 ***** ** ***  *** **   PROGRAM RAN ON                                    pop-os
 **    ****   ******    PROGRAM RAN BY                             woodrowwilson
 ***** **    ** ** **   PROGRAM PROCESS ID                                  3324
  **** **  *******  **  PROGRAM STOPPED IN /home/woodrowwilson/Documents/Worksho
                                           ps/MSU-DFT-Catalysis-School/1_Gas-Pha
                                           se-Molecules/1_H2/3_Vibrational-Modes
