 DBCSR| CPU Multiplication driver                                           BLAS
 DBCSR| Multrec recursion limit                                              512
 DBCSR| Multiplication stack size                                           1000
 DBCSR| Maximum elements for images                                    UNLIMITED
 DBCSR| Multiplicative factor virtual images                                   1
 DBCSR| Use multiplication densification                                       T
 DBCSR| Multiplication size stacks                                             3
 DBCSR| Use memory pool for CPU allocation                                     F
 DBCSR| Number of 3D layers                                               SINGLE
 DBCSR| Use MPI memory allocation                                              F
 DBCSR| Use RMA algorithm                                                      F
 DBCSR| Use Communication thread                                               T
 DBCSR| Communication thread load                                             87
 DBCSR| MPI: My node id                                                        0
 DBCSR| MPI: Number of nodes                                                 120
 DBCSR| OMP: Current number of threads                                         1
 DBCSR| OMP: Max number of threads                                             1
 DBCSR| Split modifier for TAS multiplication algorithm                  1.0E+00


  **** **** ******  **  PROGRAM STARTED AT               2022-06-16 10:33:32.136
 ***** ** ***  *** **   PROGRAM STARTED ON           Orion-20-64.HPC.MsState.Edu
 **    ****   ******    PROGRAM STARTED BY                                 wnw36
 ***** **    ** ** **   PROGRAM PROCESS ID                                257274
  **** **  *******  **  PROGRAM STARTED IN /work/hpc/users/wnw36/MSU-DFT-Catalys
                                           is-School/5_NEB/2_Diels-Alder

 CP2K| version string:                                          CP2K version 9.1
 CP2K| source code revision number:                                  git:d8d7100
 CP2K| cp2kflags: omp libint fftw3 libxc parallel mpi3 scalapack max_contr=4 plu
 CP2K|            med2 spglib mkl check_diag libvori libbqb
 CP2K| is freely available from                            https://www.cp2k.org/
 CP2K| Program compiled at                          Mon May 23 16:32:41 CDT 2022
 CP2K| Program compiled on                         Orion-devel-1.HPC.MsState.Edu
 CP2K| Program compiled for                              Linux-x86-64-intel-hpc2
 CP2K| Data directory path                      /apps/contrib/cp2k/cp2k/9.1/data
 CP2K| Input file name                                                  cp2k.inp
 
 GLOBAL| Force Environment number                                              1
 GLOBAL| Basis set file name                                           BASIS_SET
 GLOBAL| Potential file name                                      GTH_POTENTIALS
 GLOBAL| MM Potential file name                                     MM_POTENTIAL
 GLOBAL| Coordinate file name                                      __STD_INPUT__
 GLOBAL| Method name                                                        CP2K
 GLOBAL| Project name                                                Diels-Alder
 GLOBAL| Run type                                                           BAND
 GLOBAL| FFT library                                                       FFTW3
 GLOBAL| Diagonalization library                                       ScaLAPACK
 GLOBAL| Orthonormality check for eigenvectors enabled                 5.000E-14
 GLOBAL| Matrix multiplication library                                 ScaLAPACK
 GLOBAL| All-to-all communication in single precision                          F
 GLOBAL| FFTs using library dependent lengths                                  F
 GLOBAL| Grid backend                                                       AUTO
 GLOBAL| Global print level                                               MEDIUM
 GLOBAL| MPI I/O enabled                                                       T
 GLOBAL| Total number of message passing processes                           120
 GLOBAL| Number of threads for this process                                    1
 GLOBAL| This output is from process                                           0
 GLOBAL| Stack size for threads created by OpenMP (OMP_STACKSIZE)        default
 GLOBAL| CPU model name                 Intel(R) Xeon(R) Gold 6148 CPU @ 2.40GHz
 GLOBAL| CPUID                                                              1003

 MEMORY| system memory details [Kb]
 MEMORY|                        rank 0           min           max       average
 MEMORY| MemTotal            196434472     196434472     196434476     196434474
 MEMORY| MemFree             162074056     162074056     166915596     164437062
 MEMORY| Buffers                   524             4           524           181
 MEMORY| Cached               16729464      13464096      16729464      15373892
 MEMORY| Slab                  5495232       4016532       5495232       4537833
 MEMORY| SReclaimable          1885496        626376       1885496       1071157
 MEMORY| MemLikelyFree       180689540     180689540     181006072     180882293


 *** Fundamental physical constants (SI units) ***

 *** Literature: B. J. Mohr and B. N. Taylor,
 ***             CODATA recommended values of the fundamental physical
 ***             constants: 2006, Web Version 5.1
 ***             http://physics.nist.gov/constants

 Speed of light in vacuum [m/s]                             2.99792458000000E+08
 Magnetic constant or permeability of vacuum [N/A**2]       1.25663706143592E-06
 Electric constant or permittivity of vacuum [F/m]          8.85418781762039E-12
 Planck constant (h) [J*s]                                  6.62606896000000E-34
 Planck constant (h-bar) [J*s]                              1.05457162825177E-34
 Elementary charge [C]                                      1.60217648700000E-19
 Electron mass [kg]                                         9.10938215000000E-31
 Electron g factor [ ]                                     -2.00231930436220E+00
 Proton mass [kg]                                           1.67262163700000E-27
 Fine-structure constant                                    7.29735253760000E-03
 Rydberg constant [1/m]                                     1.09737315685270E+07
 Avogadro constant [1/mol]                                  6.02214179000000E+23
 Boltzmann constant [J/K]                                   1.38065040000000E-23
 Atomic mass unit [kg]                                      1.66053878200000E-27
 Bohr radius [m]                                            5.29177208590000E-11

 *** Conversion factors ***

 [u] -> [a.u.]                                              1.82288848426455E+03
 [Angstrom] -> [Bohr] = [a.u.]                              1.88972613288564E+00
 [a.u.] = [Bohr] -> [Angstrom]                              5.29177208590000E-01
 [a.u.] -> [s]                                              2.41888432650478E-17
 [a.u.] -> [fs]                                             2.41888432650478E-02
 [a.u.] -> [J]                                              4.35974393937059E-18
 [a.u.] -> [N]                                              8.23872205491840E-08
 [a.u.] -> [K]                                              3.15774647902944E+05
 [a.u.] -> [kJ/mol]                                         2.62549961709828E+03
 [a.u.] -> [kcal/mol]                                       6.27509468713739E+02
 [a.u.] -> [Pa]                                             2.94210107994716E+13
 [a.u.] -> [bar]                                            2.94210107994716E+08
 [a.u.] -> [atm]                                            2.90362800883016E+08
 [a.u.] -> [eV]                                             2.72113838565563E+01
 [a.u.] -> [Hz]                                             6.57968392072181E+15
 [a.u.] -> [1/cm] (wave numbers)                            2.19474631370540E+05
 [a.u./Bohr**2] -> [1/cm]                                   5.14048714338585E+03
 

 CELL_TOP| Volume [angstrom^3]:                                      3375.000000
 CELL_TOP| Vector a [angstrom    15.000     0.000     0.000   |a| =    15.000000
 CELL_TOP| Vector b [angstrom     0.000    15.000     0.000   |b| =    15.000000
 CELL_TOP| Vector c [angstrom     0.000     0.000    15.000   |c| =    15.000000
 CELL_TOP| Angle (b,c), alpha [degree]:                                90.000000
 CELL_TOP| Angle (a,c), beta  [degree]:                                90.000000
 CELL_TOP| Angle (a,b), gamma [degree]:                                90.000000
 CELL_TOP| Numerically orthorhombic:                                         YES
 
 GENERATE|  Preliminary Number of Bonds generated:                             0
 GENERATE|  Achieved consistency in connectivity generation.

 CELL| Volume [angstrom^3]:                                          3375.000000
 CELL| Vector a [angstrom]:      15.000     0.000     0.000   |a| =    15.000000
 CELL| Vector b [angstrom]:       0.000    15.000     0.000   |b| =    15.000000
 CELL| Vector c [angstrom]:       0.000     0.000    15.000   |c| =    15.000000
 CELL| Angle (b,c), alpha [degree]:                                    90.000000
 CELL| Angle (a,c), beta  [degree]:                                    90.000000
 CELL| Angle (a,b), gamma [degree]:                                    90.000000
 CELL| Numerically orthorhombic:                                             YES

 CELL_REF| Volume [angstrom^3]:                                      3375.000000
 CELL_REF| Vector a [angstrom    15.000     0.000     0.000   |a| =    15.000000
 CELL_REF| Vector b [angstrom     0.000    15.000     0.000   |b| =    15.000000
 CELL_REF| Vector c [angstrom     0.000     0.000    15.000   |c| =    15.000000
 CELL_REF| Angle (b,c), alpha [degree]:                                90.000000
 CELL_REF| Angle (a,c), beta  [degree]:                                90.000000
 CELL_REF| Angle (a,b), gamma [degree]:                                90.000000
 CELL_REF| Numerically orthorhombic:                                         YES

 *******************************************************************************
 *******************************************************************************
 **                                                                           **
 **     #####                         ##              ##                      **
 **    ##   ##            ##          ##              ##                      **
 **   ##     ##                       ##            ######                    **
 **   ##     ##  ##   ##  ##   #####  ##  ##   ####   ##    #####    #####    **
 **   ##     ##  ##   ##  ##  ##      ## ##   ##      ##   ##   ##  ##   ##   **
 **   ##  ## ##  ##   ##  ##  ##      ####     ###    ##   ######   ######    **
 **    ##  ###   ##   ##  ##  ##      ## ##      ##   ##   ##       ##        **
 **     #######   #####   ##   #####  ##  ##  ####    ##    #####   ##        **
 **           ##                                                    ##        **
 **                                                                           **
 **                                                ... make the atoms dance   **
 **                                                                           **
 **            Copyright (C) by CP2K developers group (2000-2021)             **
 **                      J. Chem. Phys. 152, 194103 (2020)                    **
 **                                                                           **
 *******************************************************************************

 DFT| Spin unrestricted (spin-polarized) Kohn-Sham calculation               UKS
 DFT| Multiplicity                                                             1
 DFT| Number of spin states                                                    2
 DFT| Charge                                                                   0
 DFT| Self-interaction correction (SIC)                                       NO
 DFT| Cutoffs: density                                              1.000000E-10
 DFT|          gradient                                             1.000000E-10
 DFT|          tau                                                  1.000000E-10
 DFT|          cutoff_smoothing_range                               0.000000E+00
 DFT| XC density smoothing                                                  NONE
 DFT| XC derivatives                                                          PW
 FUNCTIONAL| ROUTINE=NEW
 FUNCTIONAL| PADE:
 FUNCTIONAL| S. Goedecker, M. Teter and J. Hutter, Phys. Rev. B 54, 1703 (1996) 

 QS| Method:                                                                 GPW
 QS| Density plane wave grid type                        NON-SPHERICAL FULLSPACE
 QS| Number of grid levels:                                                    4
 QS| Density cutoff [a.u.]:                                                170.0
 QS| Multi grid cutoff [a.u.]: 1) grid level                               170.0
 QS|                           2) grid level                                56.7
 QS|                           3) grid level                                18.9
 QS|                           4) grid level                                 6.3
 QS| Grid level progression factor:                                          3.0
 QS| Relative density cutoff [a.u.]:                                        20.0
 QS| Interaction thresholds: eps_pgf_orb:                                1.0E-05
 QS|                         eps_filter_matrix:                          0.0E+00
 QS|                         eps_core_charge:                            1.0E-12
 QS|                         eps_rho_gspace:                             1.0E-10
 QS|                         eps_rho_rspace:                             1.0E-10
 QS|                         eps_gvg_rspace:                             1.0E-05
 QS|                         eps_ppl:                                    1.0E-02
 QS|                         eps_ppnl:                                   1.0E-07


 ATOMIC KIND INFORMATION

  1. Atomic kind: C                                     Number of atoms:       7

     Orbital Basis Set                                             DZVP-GTH-PADE

       Number of orbital shell sets:                                           2
       Number of orbital shells:                                               5
       Number of primitive Cartesian functions:                                5
       Number of Cartesian basis functions:                                   14
       Number of spherical basis functions:                                   13
       Norm type:                                                              2

       Normalised Cartesian orbitals:

                        Set   Shell   Orbital            Exponent    Coefficient

                          1       1    2s                4.336251       0.319274
                                                         1.288182      -0.025218
                                                         0.403776      -0.248447
                                                         0.118788      -0.057170

                          1       2    3s                4.336251       0.000000
                                                         1.288182       0.000000
                                                         0.403776       0.000000
                                                         0.118788       0.144208

                          1       3    3px               4.336251      -0.783228
                                                         1.288182      -0.542955
                                                         0.403776      -0.216196
                                                         0.118788      -0.040339
                          1       3    3py               4.336251      -0.783228
                                                         1.288182      -0.542955
                                                         0.403776      -0.216196
                                                         0.118788      -0.040339
                          1       3    3pz               4.336251      -0.783228
                                                         1.288182      -0.542955
                                                         0.403776      -0.216196
                                                         0.118788      -0.040339

                          1       4    4px               4.336251       0.000000
                                                         1.288182       0.000000
                                                         0.403776       0.000000
                                                         0.118788       0.099404
                          1       4    4py               4.336251       0.000000
                                                         1.288182       0.000000
                                                         0.403776       0.000000
                                                         0.118788       0.099404
                          1       4    4pz               4.336251       0.000000
                                                         1.288182       0.000000
                                                         0.403776       0.000000
                                                         0.118788       0.099404

                          2       1    3dx2              0.600000       0.673247
                          2       1    3dxy              0.600000       1.166097
                          2       1    3dxz              0.600000       1.166097
                          2       1    3dy2              0.600000       0.673247
                          2       1    3dyz              0.600000       1.166097
                          2       1    3dz2              0.600000       0.673247

       Atomic covalent radius [Angstrom]:                                  0.770

       Atomic van der Waals radius [Angstrom]:                             1.700

     GTH Potential information for                                   GTH-PADE-q4

       Description:                       Goedecker-Teter-Hutter pseudopotential
                                           Goedecker et al., PRB 54, 1703 (1996)
                                          Hartwigsen et al., PRB 58, 3641 (1998)
                                                      Krack, TCA 114, 145 (2005)

       Gaussian exponent of the core charge distribution:               4.109048
       Electronic configuration (s p d ...):                               2   2

       Parameters of the local part of the GTH pseudopotential:

                          rloc        C1          C2          C3          C4
                        0.348830   -8.513771    1.228432

       Parameters of the non-local part of the GTH pseudopotential:

                   l      r(l)      h(i,j,l)

                   0    0.304553    9.522842
                   1    0.232677

  2. Atomic kind: O                                     Number of atoms:       1

     Orbital Basis Set                                             DZVP-GTH-PADE

       Number of orbital shell sets:                                           2
       Number of orbital shells:                                               5
       Number of primitive Cartesian functions:                                5
       Number of Cartesian basis functions:                                   14
       Number of spherical basis functions:                                   13
       Norm type:                                                              2

       Normalised Cartesian orbitals:

                        Set   Shell   Orbital            Exponent    Coefficient

                          1       1    2s                8.304404       0.526521
                                                         2.457945      -0.055011
                                                         0.759736      -0.404341
                                                         0.213639      -0.086026

                          1       2    3s                8.304404       0.000000
                                                         2.457945       0.000000
                                                         0.759736       0.000000
                                                         0.213639       0.223960

                          1       3    3px               8.304404      -2.000758
                                                         2.457945      -1.321077
                                                         0.759736      -0.480331
                                                         0.213639      -0.078647
                          1       3    3py               8.304404      -2.000758
                                                         2.457945      -1.321077
                                                         0.759736      -0.480331
                                                         0.213639      -0.078647
                          1       3    3pz               8.304404      -2.000758
                                                         2.457945      -1.321077
                                                         0.759736      -0.480331
                                                         0.213639      -0.078647

                          1       4    4px               8.304404       0.000000
                                                         2.457945       0.000000
                                                         0.759736       0.000000
                                                         0.213639       0.207033
                          1       4    4py               8.304404       0.000000
                                                         2.457945       0.000000
                                                         0.759736       0.000000
                                                         0.213639       0.207033
                          1       4    4pz               8.304404       0.000000
                                                         2.457945       0.000000
                                                         0.759736       0.000000
                                                         0.213639       0.207033

                          2       1    3dx2              0.800000       1.113825
                          2       1    3dxy              0.800000       1.929201
                          2       1    3dxz              0.800000       1.929201
                          2       1    3dy2              0.800000       1.113825
                          2       1    3dyz              0.800000       1.929201
                          2       1    3dz2              0.800000       1.113825

       Atomic covalent radius [Angstrom]:                                  0.730

       Atomic van der Waals radius [Angstrom]:                             1.520

     GTH Potential information for                                   GTH-PADE-q6

       Description:                       Goedecker-Teter-Hutter pseudopotential
                                           Goedecker et al., PRB 54, 1703 (1996)
                                          Hartwigsen et al., PRB 58, 3641 (1998)
                                                      Krack, TCA 114, 145 (2005)

       Gaussian exponent of the core charge distribution:               8.154466
       Electronic configuration (s p d ...):                               2   4

       Parameters of the local part of the GTH pseudopotential:

                          rloc        C1          C2          C3          C4
                        0.247621  -16.580318    2.395701

       Parameters of the non-local part of the GTH pseudopotential:

                   l      r(l)      h(i,j,l)

                   0    0.221786   18.266917
                   1    0.256829

  3. Atomic kind: H                                     Number of atoms:      10

     Orbital Basis Set                                             DZVP-GTH-PADE

       Number of orbital shell sets:                                           2
       Number of orbital shells:                                               3
       Number of primitive Cartesian functions:                                5
       Number of Cartesian basis functions:                                    5
       Number of spherical basis functions:                                    5
       Norm type:                                                              2

       Normalised Cartesian orbitals:

                        Set   Shell   Orbital            Exponent    Coefficient

                          1       1    1s                8.374435      -0.083834
                                                         1.805868      -0.155208
                                                         0.485253      -0.104875
                                                         0.165824      -0.128813

                          1       2    2s                8.374435       0.000000
                                                         1.805868       0.000000
                                                         0.485253       0.000000
                                                         0.165824       0.185202

                          2       1    2px               0.700000       0.912668
                          2       1    2py               0.700000       0.912668
                          2       1    2pz               0.700000       0.912668

       Atomic covalent radius [Angstrom]:                                  0.320

       Atomic van der Waals radius [Angstrom]:                             1.090

     GTH Potential information for                                   GTH-PADE-q1

       Description:                       Goedecker-Teter-Hutter pseudopotential
                                           Goedecker et al., PRB 54, 1703 (1996)
                                          Hartwigsen et al., PRB 58, 3641 (1998)
                                                      Krack, TCA 114, 145 (2005)

       Gaussian exponent of the core charge distribution:              12.500000
       Electronic configuration (s p d ...):                                   1

       Parameters of the local part of the GTH pseudopotential:

                          rloc        C1          C2          C3          C4
                        0.200000   -4.180237    0.725075


 MOLECULE KIND INFORMATION


 All atoms are their own molecule, skipping detailed information


 TOTAL NUMBERS AND MAXIMUM NUMBERS

  Total number of            - Atomic kinds:                                   3
                             - Atoms:                                         18
                             - Shell sets:                                    36
                             - Shells:                                        70
                             - Primitive Cartesian functions:                 90
                             - Cartesian basis functions:                    162
                             - Spherical basis functions:                    154

  Maximum angular momentum of- Orbital basis functions:                        2
                             - Local part of the GTH pseudopotential:          2
                             - Non-local part of the GTH pseudopotential:      0


 MODULE QUICKSTEP:  ATOMIC COORDINATES IN angstrom

 Atom  Kind  Element       X           Y           Z          Z(eff)       Mass
    1   1 C    6       7.362915    6.802580    6.114880       4.0000     12.0107
    2   1 C    6       8.233482    7.787912    6.511318       4.0000     12.0107
    3   2 O    8       7.737963    8.442143    7.593973       6.0000     15.9994
    4   3 H    1       9.189127    8.147172    6.128017       1.0000      1.0079
    5   1 C    6       9.379203    6.035102    8.618842       4.0000     12.0107
    6   1 C    6       6.558438    7.851473    7.930826       4.0000     12.0107
    7   1 C    6       6.274156    6.845675    7.034836       4.0000     12.0107
    8   1 C    6       5.816199    8.419231    9.079482       4.0000     12.0107
    9   1 C    6       8.346220    6.087105    9.478568       4.0000     12.0107
   10   3 H    1       7.495580    6.122405    5.271793       1.0000      1.0079
   11   3 H    1       5.385925    6.211144    7.059010       1.0000      1.0079
   12   3 H    1       6.499948    8.672694    9.908813       1.0000      1.0079
   13   3 H    1       5.082725    7.683034    9.447284       1.0000      1.0079
   14   3 H    1       5.264253    9.337584    8.803681       1.0000      1.0079
   15   3 H    1       7.552389    5.329611    9.472017       1.0000      1.0079
   16   3 H    1       8.265668    6.889429   10.224785       1.0000      1.0079
   17   3 H    1      10.172649    6.794013    8.632653       1.0000      1.0079
   18   3 H    1       9.468470    5.234439    7.874118       1.0000      1.0079




 SCF PARAMETERS         Density guess:                                    ATOMIC
                        --------------------------------------------------------
                        max_scf:                                             200
                        max_scf_history:                                       0
                        max_diis:                                              4
                        --------------------------------------------------------
                        eps_scf:                                        1.00E-05
                        eps_scf_history:                                0.00E+00
                        eps_diis:                                       1.00E-01
                        eps_eigval:                                     1.00E-05
                        --------------------------------------------------------
                        level_shift [a.u.]:                                 0.00
                        added MOs                                        50   50
                        --------------------------------------------------------
                        Mixing method:                            BROYDEN_MIXING
                                                charge density mixing in g-space
                        --------------------------------------------------------
                        Smear method:                                FERMI_DIRAC
                        Electronic temperature [K]:                        300.0
                        Electronic temperature [a.u.]:                  9.50E-04
                        Accuracy threshold:                             1.00E-10
                        --------------------------------------------------------
                        Outer loop SCF in use 
                        No variables optimised in outer loop
                        eps_scf                                         1.00E-05
                        max_scf                                               50
                        No outer loop optimization
                        step_size                                       5.00E-01

 PW_GRID| Information for grid number                                          1
 PW_GRID| Grid distributed over                                   120 processors
 PW_GRID| Real space group dimensions                                   120    1
 PW_GRID| the grid is blocked:                                                NO
 PW_GRID| Cutoff [a.u.]                                                    170.0
 PW_GRID| spherical cutoff:                                                   NO
 PW_GRID|   Bounds   1            -90      89                Points:         180
 PW_GRID|   Bounds   2            -90      89                Points:         180
 PW_GRID|   Bounds   3            -90      89                Points:         180
 PW_GRID| Volume element (a.u.^3)  0.3905E-02     Volume (a.u.^3)     22775.6292
 PW_GRID| Grid span                                                    FULLSPACE
 PW_GRID|   Distribution                         Average         Max         Min
 PW_GRID|   G-Vectors                            48600.0       48600       48600
 PW_GRID|   G-Rays                                 270.0         270         270
 PW_GRID|   Real Space Points                    48600.0       64800       32400

 PW_GRID| Information for grid number                                          2
 PW_GRID| Number of the reference grid                                         1
 PW_GRID| Grid distributed over                                   120 processors
 PW_GRID| Real space group dimensions                                    10   12
 PW_GRID| the grid is blocked:                                                NO
 PW_GRID| Cutoff [a.u.]                                                     56.7
 PW_GRID| spherical cutoff:                                                   NO
 PW_GRID|   Bounds   1            -50      49                Points:         100
 PW_GRID|   Bounds   2            -50      49                Points:         100
 PW_GRID|   Bounds   3            -50      49                Points:         100
 PW_GRID| Volume element (a.u.^3)  0.2278E-01     Volume (a.u.^3)     22775.6292
 PW_GRID| Grid span                                                    FULLSPACE
 PW_GRID|   Distribution                         Average         Max         Min
 PW_GRID|   G-Vectors                             8333.3        8600        8100
 PW_GRID|   G-Rays                                  83.3          86          81
 PW_GRID|   Real Space Points                     8333.3        9000        8000

 PW_GRID| Information for grid number                                          3
 PW_GRID| Number of the reference grid                                         1
 PW_GRID| Grid distributed over                                   120 processors
 PW_GRID| Real space group dimensions                                    10   12
 PW_GRID| the grid is blocked:                                                NO
 PW_GRID| Cutoff [a.u.]                                                     18.9
 PW_GRID| spherical cutoff:                                                   NO
 PW_GRID|   Bounds   1            -30      29                Points:          60
 PW_GRID|   Bounds   2            -30      29                Points:          60
 PW_GRID|   Bounds   3            -30      29                Points:          60
 PW_GRID| Volume element (a.u.^3)  0.1054         Volume (a.u.^3)     22775.6292
 PW_GRID| Grid span                                                    FULLSPACE
 PW_GRID|   Distribution                         Average         Max         Min
 PW_GRID|   G-Vectors                             1800.0        1920        1740
 PW_GRID|   G-Rays                                  30.0          32          29
 PW_GRID|   Real Space Points                     1800.0        1800        1800

 PW_GRID| Information for grid number                                          4
 PW_GRID| Number of the reference grid                                         1
 PW_GRID| Grid distributed over                                   120 processors
 PW_GRID| Real space group dimensions                                    10   12
 PW_GRID| the grid is blocked:                                                NO
 PW_GRID| Cutoff [a.u.]                                                      6.3
 PW_GRID| spherical cutoff:                                                   NO
 PW_GRID|   Bounds   1            -18      17                Points:          36
 PW_GRID|   Bounds   2            -18      17                Points:          36
 PW_GRID|   Bounds   3            -18      17                Points:          36
 PW_GRID| Volume element (a.u.^3)  0.4882         Volume (a.u.^3)     22775.6292
 PW_GRID| Grid span                                                    FULLSPACE
 PW_GRID|   Distribution                         Average         Max         Min
 PW_GRID|   G-Vectors                              388.8         432         360
 PW_GRID|   G-Rays                                  10.8          12          10
 PW_GRID|   Real Space Points                      388.8         432         324

 POISSON| Solver                                                         WAVELET
 POISSON| Wavelet| Scaling function                                           40
 POISSON| Periodicity                                                       NONE

 RS_GRID| Information for grid number                                          1
 RS_GRID|   Bounds   1            -90      89                Points:         180
 RS_GRID|   Bounds   2            -90      89                Points:         180
 RS_GRID|   Bounds   3            -90      89                Points:         180
 RS_GRID| Real space distribution over                                  4 groups
 RS_GRID| Real space distribution along direction                              1
 RS_GRID| Border size                                                         21
 RS_GRID| Real space distribution over                                  5 groups
 RS_GRID| Real space distribution along direction                              2
 RS_GRID| Border size                                                         21
 RS_GRID| Real space distribution over                                  6 groups
 RS_GRID| Real space distribution along direction                              3
 RS_GRID| Border size                                                         21
 RS_GRID|   Distribution                         Average         Max         Min
 RS_GRID|   Planes                                  87.0          87          87
 RS_GRID|   Distribution                         Average         Max         Min
 RS_GRID|   Planes                                  78.0          78          78
 RS_GRID|   Distribution                         Average         Max         Min
 RS_GRID|   Planes                                  72.0          72          72

 RS_GRID| Information for grid number                                          2
 RS_GRID|   Bounds   1            -50      49                Points:         100
 RS_GRID|   Bounds   2            -50      49                Points:         100
 RS_GRID|   Bounds   3            -50      49                Points:         100
 RS_GRID| Real space distribution over                                  4 groups
 RS_GRID| Real space distribution along direction                              1
 RS_GRID| Border size                                                         21
 RS_GRID| Real space distribution over                                  5 groups
 RS_GRID| Real space distribution along direction                              2
 RS_GRID| Border size                                                         21
 RS_GRID| Real space distribution over                                  6 groups
 RS_GRID| Real space distribution along direction                              3
 RS_GRID| Border size                                                         21
 RS_GRID|   Distribution                         Average         Max         Min
 RS_GRID|   Planes                                  67.0          67          67
 RS_GRID|   Distribution                         Average         Max         Min
 RS_GRID|   Planes                                  62.0          62          62
 RS_GRID|   Distribution                         Average         Max         Min
 RS_GRID|   Planes                                  58.7          59          58

 RS_GRID| Information for grid number                                          3
 RS_GRID|   Bounds   1            -30      29                Points:          60
 RS_GRID|   Bounds   2            -30      29                Points:          60
 RS_GRID|   Bounds   3            -30      29                Points:          60
 RS_GRID| Real space fully replicated
 RS_GRID| Group size                                                           1

 RS_GRID| Information for grid number                                          4
 RS_GRID|   Bounds   1            -18      17                Points:          36
 RS_GRID|   Bounds   2            -18      17                Points:          36
 RS_GRID|   Bounds   3            -18      17                Points:          36
 RS_GRID| Real space fully replicated
 RS_GRID| Group size                                                           1
 NEB| Replica_env Setup. START
 REPLICA| layout of the replica grid, number of groups                        10
 REPLICA| layout of the replica grid, size of each group                      12
 REPLICA| MPI process to grid (group,rank) correspondence:
  (   0 :    0,   0)  (   1 :    0,   1)  (   2 :    0,   2)  (   3 :    0,   3)
  (   4 :    0,   4)  (   5 :    0,   5)  (   6 :    0,   6)  (   7 :    0,   7)
  (   8 :    0,   8)  (   9 :    0,   9)  (  10 :    0,  10)  (  11 :    0,  11)
  (  12 :    1,   0)  (  13 :    1,   1)  (  14 :    1,   2)  (  15 :    1,   3)
  (  16 :    1,   4)  (  17 :    1,   5)  (  18 :    1,   6)  (  19 :    1,   7)
  (  20 :    1,   8)  (  21 :    1,   9)  (  22 :    1,  10)  (  23 :    1,  11)
  (  24 :    2,   0)  (  25 :    2,   1)  (  26 :    2,   2)  (  27 :    2,   3)
  (  28 :    2,   4)  (  29 :    2,   5)  (  30 :    2,   6)  (  31 :    2,   7)
  (  32 :    2,   8)  (  33 :    2,   9)  (  34 :    2,  10)  (  35 :    2,  11)
  (  36 :    3,   0)  (  37 :    3,   1)  (  38 :    3,   2)  (  39 :    3,   3)
  (  40 :    3,   4)  (  41 :    3,   5)  (  42 :    3,   6)  (  43 :    3,   7)
  (  44 :    3,   8)  (  45 :    3,   9)  (  46 :    3,  10)  (  47 :    3,  11)
  (  48 :    4,   0)  (  49 :    4,   1)  (  50 :    4,   2)  (  51 :    4,   3)
  (  52 :    4,   4)  (  53 :    4,   5)  (  54 :    4,   6)  (  55 :    4,   7)
  (  56 :    4,   8)  (  57 :    4,   9)  (  58 :    4,  10)  (  59 :    4,  11)
  (  60 :    5,   0)  (  61 :    5,   1)  (  62 :    5,   2)  (  63 :    5,   3)
  (  64 :    5,   4)  (  65 :    5,   5)  (  66 :    5,   6)  (  67 :    5,   7)
  (  68 :    5,   8)  (  69 :    5,   9)  (  70 :    5,  10)  (  71 :    5,  11)
  (  72 :    6,   0)  (  73 :    6,   1)  (  74 :    6,   2)  (  75 :    6,   3)
  (  76 :    6,   4)  (  77 :    6,   5)  (  78 :    6,   6)  (  79 :    6,   7)
  (  80 :    6,   8)  (  81 :    6,   9)  (  82 :    6,  10)  (  83 :    6,  11)
  (  84 :    7,   0)  (  85 :    7,   1)  (  86 :    7,   2)  (  87 :    7,   3)
  (  88 :    7,   4)  (  89 :    7,   5)  (  90 :    7,   6)  (  91 :    7,   7)
  (  92 :    7,   8)  (  93 :    7,   9)  (  94 :    7,  10)  (  95 :    7,  11)
  (  96 :    8,   0)  (  97 :    8,   1)  (  98 :    8,   2)  (  99 :    8,   3)
  ( 100 :    8,   4)  ( 101 :    8,   5)  ( 102 :    8,   6)  ( 103 :    8,   7)
  ( 104 :    8,   8)  ( 105 :    8,   9)  ( 106 :    8,  10)  ( 107 :    8,  11)
  ( 108 :    9,   0)  ( 109 :    9,   1)  ( 110 :    9,   2)  ( 111 :    9,   3)
  ( 112 :    9,   4)  ( 113 :    9,   5)  ( 114 :    9,   6)  ( 115 :    9,   7)
  ( 116 :    9,   8)  ( 117 :    9,   9)  ( 118 :    9,  10)  ( 119 :    9,  11)
 NEB| Replica_env Setup. END

 *******************************************************************************
 *******************************************************************************
 **                                                                           **
 **  ########     ###    ##    ## ########    Nudged Elastic Band Method      **
 **  ##     ##   ## ##   ###   ## ##     ##   String Method                   **
 **  ##     ##  ##   ##  ####  ## ##     ##                                   **
 **  ########  ##     ## ## ## ## ##     ##   Number of Images :           10 **
 **  ##     ## ######### ##  #### ##     ##   Number of Replicas:          10 **
 **  ##     ## ##     ## ##   ### ##     ##   Number of Procs/Rep:         12 **
 **  ########  ##     ## ##    ## ########                                    **
 **                                           T. Laino  2009 - 2015           **
 *******************************************************************************
 *******************************************************************************

 NEB| Building initial set of coordinates. START
 NEB| Building initial set of coordinates. END

 NEB| Computing Energies and Forces
 NEB| REPLICA Nr.    1- Energy and Forces
 NEB|                                     Total energy:         -61.612758912819
 NEB|    ATOM                            X                Y                Z
 NEB|      C                      -0.000711318     -0.000328357     -0.001006868           
 NEB|      C                      -0.000198886     -0.000417181      0.000309000           
 NEB|      O                       0.000009735      0.000177143     -0.000202355           
 NEB|      H                      -0.000473645      0.000012657      0.000116042           
 NEB|      C                       0.000382696     -0.000111159     -0.000132180           
 NEB|      C                      -0.000231909      0.000723350      0.000747870           
 NEB|      C                       0.000489340     -0.000808887      0.000177988           
 NEB|      C                       0.000239004     -0.000024485     -0.000363757           
 NEB|      C                      -0.000212263     -0.000086946      0.000377211           
 NEB|      H                       0.000156087      0.000192369     -0.000063239           
 NEB|      H                       0.000452149     -0.000202662     -0.000643432           
 NEB|      H                       0.000111571     -0.000192919     -0.000109710           
 NEB|      H                      -0.000030709      0.000184031      0.000086768           
 NEB|      H                       0.000399057      0.000317685      0.000024991           
 NEB|      H                       0.000052956     -0.000128978      0.000127062           
 NEB|      H                      -0.000209444     -0.000008000      0.000046333           
 NEB|      H                       0.000060603     -0.000085795     -0.000072132           
 NEB|      H                       0.000164180     -0.000231627      0.000128755           
 NEB| REPLICA Nr.    2- Energy and Forces
 NEB|                                     Total energy:         -61.609462036450
 NEB|    ATOM                            X                Y                Z
 NEB|      C                       0.010297059     -0.006401286     -0.001996709           
 NEB|      C                      -0.003405635      0.006253410     -0.005343818           
 NEB|      O                       0.001460997     -0.006581051      0.004022592           
 NEB|      H                      -0.000903195     -0.000120029     -0.000002448           
 NEB|      C                      -0.008537977      0.004670280      0.015689981           
 NEB|      C                      -0.006593466      0.004700065     -0.007623503           
 NEB|      C                      -0.001800407      0.000189186      0.005037559           
 NEB|      C                       0.001259554     -0.006775213      0.000572861           
 NEB|      C                       0.015693845     -0.000332496     -0.003245382           
 NEB|      H                      -0.000492156      0.000572478     -0.000199416           
 NEB|      H                      -0.000194606      0.000568399     -0.000422015           
 NEB|      H                       0.004350868      0.002423103      0.006955105           
 NEB|      H                      -0.000454211     -0.001426989      0.000800122           
 NEB|      H                      -0.005078713      0.008469837     -0.002736257           
 NEB|      H                      -0.005032698     -0.003552461     -0.001198875           
 NEB|      H                      -0.001964465      0.002191656     -0.001169619           
 NEB|      H                       0.000269018      0.001278079     -0.001705426           
 NEB|      H                       0.000529174     -0.006248690     -0.007714736           
 NEB| REPLICA Nr.    3- Energy and Forces
 NEB|                                     Total energy:         -61.601800834282
 NEB|    ATOM                            X                Y                Z
 NEB|      C                       0.020305262     -0.010364208     -0.000365530           
 NEB|      C                      -0.006184959      0.009292198     -0.008864309           
 NEB|      O                       0.002861115     -0.009942524      0.006249313           
 NEB|      H                      -0.001453937      0.000047688     -0.000324108           
 NEB|      C                      -0.013480032      0.007050301      0.021675476           
 NEB|      C                      -0.010359407      0.007100610     -0.011935928           
 NEB|      C                      -0.002988909      0.001302542      0.007898756           
 NEB|      C                       0.001896356     -0.009206531      0.002185526           
 NEB|      C                       0.023243846     -0.001287818     -0.005137557           
 NEB|      H                      -0.001327171      0.000997165     -0.000374408           
 NEB|      H                      -0.000895109      0.001186382     -0.000180451           
 NEB|      H                       0.005577241      0.004214311      0.009543075           
 NEB|      H                      -0.000549340     -0.001935914      0.001444410           
 NEB|      H                      -0.007591049      0.010841489     -0.004312861           
 NEB|      H                      -0.006843459     -0.004978202     -0.001735169           
 NEB|      H                      -0.002978157      0.003253056     -0.002142031           
 NEB|      H                       0.000062852      0.001851671     -0.002738508           
 NEB|      H                       0.000763131     -0.008817742     -0.010495312           
 NEB| REPLICA Nr.    4- Energy and Forces
 NEB|                                     Total energy:         -61.593208190694
 NEB|    ATOM                            X                Y                Z
 NEB|      C                       0.027345908     -0.013343408      0.004266043           
 NEB|      C                      -0.006504932      0.008102116     -0.008032048           
 NEB|      O                       0.001900185     -0.008377442      0.004096538           
 NEB|      H                      -0.002218255      0.000634015     -0.000947912           
 NEB|      C                      -0.011930459      0.005776043      0.015846947           
 NEB|      C                      -0.009165457      0.006486698     -0.009668986           
 NEB|      C                      -0.003247169      0.001851443      0.006493846           
 NEB|      C                       0.001364194     -0.006476580      0.002904403           
 NEB|      C                       0.018480397     -0.001638643     -0.004861228           
 NEB|      H                      -0.002445583      0.001505224     -0.000604806           
 NEB|      H                      -0.001652067      0.001628249      0.000032937           
 NEB|      H                       0.004046353      0.003591868      0.007489941           
 NEB|      H                      -0.000412544     -0.001363171      0.001743509           
 NEB|      H                      -0.006236908      0.007931783     -0.002761475           
 NEB|      H                      -0.005509994     -0.003762537     -0.001824959           
 NEB|      H                      -0.002811704      0.002681134     -0.002399036           
 NEB|      H                      -0.000580747      0.001539122     -0.003084653           
 NEB|      H                       0.000000784     -0.006613067     -0.008549894           
 NEB| REPLICA Nr.    5- Energy and Forces
 NEB|                                     Total energy:         -61.589800134607
 NEB|    ATOM                            X                Y                Z
 NEB|      C                       0.029401125     -0.014777466      0.007679400           
 NEB|      C                      -0.005123057      0.005580710     -0.005412601           
 NEB|      O                      -0.000121184     -0.005076648      0.001422271           
 NEB|      H                      -0.002699040      0.001107272     -0.001392661           
 NEB|      C                      -0.008169238      0.003645164      0.008148698           
 NEB|      C                      -0.006183760      0.004547417     -0.005501957           
 NEB|      C                      -0.003161773      0.001782999      0.003726958           
 NEB|      C                       0.000550424     -0.003392583      0.002481623           
 NEB|      C                       0.010447073     -0.001009985     -0.003885834           
 NEB|      H                      -0.003146220      0.001819109     -0.000756012           
 NEB|      H                      -0.002059480      0.001777643      0.000113690           
 NEB|      H                       0.002484072      0.002015073      0.004940594           
 NEB|      H                      -0.000293590     -0.000698447      0.001691523           
 NEB|      H                      -0.004081369      0.005023103     -0.000417897           
 NEB|      H                      -0.003874940     -0.002063906     -0.001853104           
 NEB|      H                      -0.002115226      0.001633463     -0.002094459           
 NEB|      H                      -0.001078986      0.001045667     -0.003007320           
 NEB|      H                      -0.000981469     -0.003618298     -0.006197114           
 NEB| REPLICA Nr.    6- Energy and Forces
 NEB|                                     Total energy:         -61.587632543230
 NEB|    ATOM                            X                Y                Z
 NEB|      C                       0.030577873     -0.016234540      0.011698383           
 NEB|      C                      -0.002587784      0.001714571     -0.001346330           
 NEB|      O                      -0.002478494      0.001077064     -0.001662042           
 NEB|      H                      -0.003234494      0.001694784     -0.001914188           
 NEB|      C                      -0.002515888      0.000566905     -0.002284464           
 NEB|      C                      -0.001760564      0.001374700      0.000195400           
 NEB|      C                      -0.002998437      0.001504868     -0.000262312           
 NEB|      C                      -0.000571360      0.000508005      0.001423896           
 NEB|      C                      -0.001066791      0.000439428     -0.002227312           
 NEB|      H                      -0.003951178      0.002191727     -0.000938995           
 NEB|      H                      -0.002495364      0.001878914      0.000173755           
 NEB|      H                       0.000559973     -0.000491238      0.001595703           
 NEB|      H                      -0.000162375      0.000196622      0.001478399           
 NEB|      H                      -0.001051044      0.001532908      0.003022090           
 NEB|      H                      -0.001801223      0.000364014     -0.001988703           
 NEB|      H                      -0.000940799      0.000059447     -0.001443957           
 NEB|      H                      -0.001710814      0.000359801     -0.002795694           
 NEB|      H                      -0.002449183      0.000526099     -0.003260545           
 NEB| REPLICA Nr.    7- Energy and Forces
 NEB|                                     Total energy:         -61.597060887295
 NEB|    ATOM                            X                Y                Z
 NEB|      C                       0.022438260     -0.011913221      0.011144768           
 NEB|      C                       0.004047504     -0.011191221      0.011010777           
 NEB|      O                      -0.005161787      0.007971431     -0.001027943           
 NEB|      H                       0.000021062      0.003501227     -0.003143889           
 NEB|      C                      -0.015892996      0.000364118     -0.016748126           
 NEB|      C                       0.009777916     -0.008937907      0.009067610           
 NEB|      C                      -0.000769978      0.002085424     -0.002030817           
 NEB|      C                      -0.000976318      0.000845220      0.000400837           
 NEB|      C                      -0.011519628      0.005029879     -0.017612099           
 NEB|      H                      -0.003059875      0.001008745     -0.001017559           
 NEB|      H                      -0.003474353     -0.000103997      0.000428272           
 NEB|      H                       0.000604614     -0.000275427      0.001203945           
 NEB|      H                       0.000001160      0.000016845      0.001048652           
 NEB|      H                      -0.000985262      0.001389647      0.002064917           
 NEB|      H                      -0.001159922     -0.000027201     -0.000473821           
 NEB|      H                       0.000408551      0.003950612      0.007009503           
 NEB|      H                       0.006670311      0.006274185      0.000145612           
 NEB|      H                      -0.001236054     -0.000092072     -0.001978608           
 NEB| REPLICA Nr.    8- Energy and Forces
 NEB|                                     Total energy:         -61.615644724096
 NEB|    ATOM                            X                Y                Z
 NEB|      C                       0.013195264     -0.008241688      0.008951925           
 NEB|      C                       0.011909474     -0.022143863      0.025542546           
 NEB|      O                      -0.006532651      0.012292859     -0.002236592           
 NEB|      H                       0.001413674      0.003949810     -0.003684905           
 NEB|      C                      -0.022863738      0.007381585     -0.032303738           
 NEB|      C                       0.018439232     -0.016848718      0.016366363           
 NEB|      C                       0.000662746      0.001366820     -0.003701685           
 NEB|      C                      -0.001125573      0.000790026     -0.000291358           
 NEB|      C                      -0.021501491      0.011541499     -0.024184914           
 NEB|      H                      -0.002183514      0.000318053     -0.000984606           
 NEB|      H                      -0.003542482     -0.000927283      0.000257502           
 NEB|      H                       0.000590460     -0.000062504      0.000785279           
 NEB|      H                       0.000079000     -0.000084291      0.000665860           
 NEB|      H                      -0.000745704      0.001175734      0.001183202           
 NEB|      H                      -0.000334856     -0.000402721      0.000589818           
 NEB|      H                       0.001906373      0.004273191      0.010449074           
 NEB|      H                       0.010359472      0.006998403      0.002724758           
 NEB|      H                      -0.000274193     -0.000592203     -0.000742713           
 NEB| REPLICA Nr.    9- Energy and Forces
 NEB|                                     Total energy:         -61.639558994496
 NEB|    ATOM                            X                Y                Z
 NEB|      C                       0.005735450     -0.004438113      0.005325414           
 NEB|      C                       0.014136062     -0.023744242      0.029063487           
 NEB|      O                      -0.005437109      0.009395929     -0.002790959           
 NEB|      H                       0.001334104      0.002677999     -0.002769454           
 NEB|      C                      -0.020165903      0.013798190     -0.034115649           
 NEB|      C                       0.017440849     -0.016360957      0.015190779           
 NEB|      C                       0.000753213      0.000410667     -0.003024577           
 NEB|      C                      -0.000946264      0.000335439     -0.000361998           
 NEB|      C                      -0.020218781      0.012717453     -0.019372407           
 NEB|      H                      -0.001198134      0.000012656     -0.000699011           
 NEB|      H                      -0.002426042     -0.000781111     -0.000058975           
 NEB|      H                       0.000509137      0.000137548      0.000392498           
 NEB|      H                       0.000114286     -0.000106330      0.000318627           
 NEB|      H                      -0.000337407      0.000854467      0.000444953           
 NEB|      H                       0.000081028     -0.000451401      0.000723692           
 NEB|      H                       0.001975775      0.002406188      0.007847343           
 NEB|      H                       0.007902698      0.004104084      0.002896383           
 NEB|      H                       0.000146313     -0.000666725     -0.000101507           
 NEB| REPLICA Nr.   10- Energy and Forces
 NEB|                                     Total energy:         -61.653661447268
 NEB|    ATOM                            X                Y                Z
 NEB|      C                       0.000343389      0.000311831      0.000970231           
 NEB|      C                       0.000267696      0.000071058     -0.000305295           
 NEB|      O                      -0.001149415     -0.000606121     -0.000794877           
 NEB|      H                       0.000247592     -0.000139202     -0.000099806           
 NEB|      C                       0.000076022      0.000051295     -0.000192880           
 NEB|      C                       0.000020606     -0.000274340      0.000088643           
 NEB|      C                      -0.000448905     -0.000241918      0.000036992           
 NEB|      C                      -0.000501361     -0.000343104      0.000193865           
 NEB|      C                       0.000157903     -0.000040742     -0.000029852           
 NEB|      H                       0.000069859     -0.000077101     -0.000022471           
 NEB|      H                       0.000049803     -0.000002268     -0.000210693           
 NEB|      H                       0.000363582      0.000297243      0.000025960           
 NEB|      H                       0.000172119     -0.000063423     -0.000033928           
 NEB|      H                       0.000189173      0.000422808     -0.000121800           
 NEB|      H                      -0.000108636      0.000075540     -0.000099069           
 NEB|      H                      -0.000227946     -0.000038883     -0.000163936           
 NEB|      H                      -0.000069689     -0.000035563     -0.000163190           
 NEB|      H                       0.000137328     -0.000119331      0.000018204           

 *******************************************************************************
 BAND TYPE                     =                                          CI-NEB
 BAND TYPE OPTIMIZATION        =                                              SD
 STEP NUMBER                   =                                               0
 RMSD DISTANCE DEFINITION      =                                               T
 NUMBER OF NEB REPLICA         =                                              10
 DISTANCES REP =        0.549038        0.549038        0.549038        0.274519
                        0.274519        0.457210        0.457210        0.457210
                        0.457210
 ENERGIES [au] =      -61.612759      -61.609462      -61.601801      -61.593208
                      -61.589800      -61.587633      -61.597061      -61.615645
                      -61.639559      -61.653661
 BAND TOTAL ENERGY [au]        =                             -616.09597493843773
 *******************************************************************************

 NEB| Computing Energies and Forces
 NEB| REPLICA Nr.    1- Energy and Forces
 NEB|                                     Total energy:         -61.612758912763
 NEB|    ATOM                            X                Y                Z
 NEB|      C                      -0.000713508     -0.000327265     -0.001003868           
 NEB|      C                      -0.000198709     -0.000419519      0.000306674           
 NEB|      O                       0.000010430      0.000178612     -0.000201402           
 NEB|      H                      -0.000473724      0.000012872      0.000116295           
 NEB|      C                       0.000383978     -0.000111011     -0.000133225           
 NEB|      C                      -0.000235337      0.000719818      0.000747182           
 NEB|      C                       0.000492080     -0.000806768      0.000177711           
 NEB|      C                       0.000238841     -0.000024432     -0.000364424           
 NEB|      C                      -0.000213021     -0.000087287      0.000377553           
 NEB|      H                       0.000156190      0.000192711     -0.000063001           
 NEB|      H                       0.000453211     -0.000201799     -0.000643458           
 NEB|      H                       0.000111130     -0.000193041     -0.000110175           
 NEB|      H                      -0.000029884      0.000184869      0.000086390           
 NEB|      H                       0.000399771      0.000316622      0.000025430           
 NEB|      H                       0.000052979     -0.000128889      0.000127120           
 NEB|      H                      -0.000209475     -0.000007757      0.000046529           
 NEB|      H                       0.000060204     -0.000086064     -0.000072045           
 NEB|      H                       0.000164052     -0.000231438      0.000129059           
 NEB| REPLICA Nr.    2- Energy and Forces
 NEB|                                     Total energy:         -61.610226647391
 NEB|    ATOM                            X                Y                Z
 NEB|      C                       0.005751386     -0.003723382      0.003165634           
 NEB|      C                      -0.003446129      0.004720488     -0.005226192           
 NEB|      O                       0.001317117     -0.004927505      0.003285874           
 NEB|      H                      -0.000330791      0.000317465     -0.000071045           
 NEB|      C                       0.006842149     -0.002487975      0.000010844           
 NEB|      C                      -0.005595444      0.004406851     -0.006025496           
 NEB|      C                       0.001507439     -0.001141004      0.000060882           
 NEB|      C                       0.000113635     -0.000099850      0.001036626           
 NEB|      C                      -0.001264929     -0.002738336      0.008749661           
 NEB|      H                       0.000092896     -0.000867364     -0.001961178           
 NEB|      H                      -0.000686819      0.000305012     -0.000254407           
 NEB|      H                       0.002711779      0.001202737      0.004492914           
 NEB|      H                      -0.000838068     -0.001996494      0.000968501           
 NEB|      H                      -0.002500671      0.004338208     -0.000716146           
 NEB|      H                      -0.001043482      0.000302074     -0.001680615           
 NEB|      H                      -0.001652981      0.001490864     -0.002083240           
 NEB|      H                      -0.000698749      0.000959271     -0.001374184           
 NEB|      H                      -0.000855269     -0.000003989     -0.002518760           
 NEB| REPLICA Nr.    3- Energy and Forces
 NEB|                                     Total energy:         -61.603692682643
 NEB|    ATOM                            X                Y                Z
 NEB|      C                       0.011264379     -0.007932217      0.006710868           
 NEB|      C                      -0.004738922      0.008645607     -0.008513971           
 NEB|      O                       0.002455913     -0.007926058      0.005034420           
 NEB|      H                      -0.000785907      0.000523965     -0.000306016           
 NEB|      C                       0.008572508     -0.004261130      0.002052392           
 NEB|      C                      -0.009347947      0.007455480     -0.009984825           
 NEB|      C                       0.002448591     -0.000677225      0.000061117           
 NEB|      C                       0.000053339      0.000208818      0.001983700           
 NEB|      C                       0.000928520     -0.005202319      0.011851458           
 NEB|      H                      -0.000268034     -0.000868973     -0.002625049           
 NEB|      H                      -0.001403337      0.000925845      0.000011252           
 NEB|      H                       0.003361375      0.002114667      0.006142008           
 NEB|      H                      -0.001100124     -0.002763152      0.001760913           
 NEB|      H                      -0.003732671      0.005323582     -0.000776767           
 NEB|      H                      -0.001704643      0.000641849     -0.002869035           
 NEB|      H                      -0.002668550      0.002314664     -0.003672815           
 NEB|      H                      -0.001401888      0.001510810     -0.002450795           
 NEB|      H                      -0.001802354      0.000580920     -0.004030831           
 NEB| REPLICA Nr.    4- Energy and Forces
 NEB|                                     Total energy:         -61.595249362047
 NEB|    ATOM                            X                Y                Z
 NEB|      C                       0.015631224     -0.012340520      0.009955705           
 NEB|      C                      -0.003420128      0.009081146     -0.007826145           
 NEB|      O                       0.001433701     -0.007070739      0.003537524           
 NEB|      H                      -0.001691092      0.000885758     -0.000770596           
 NEB|      C                       0.004634469     -0.003641082      0.004057029           
 NEB|      C                      -0.009436035      0.007092445     -0.009772160           
 NEB|      C                       0.002946563      0.000719927     -0.000167323           
 NEB|      C                      -0.000155389      0.000480268      0.002344271           
 NEB|      C                       0.004037073     -0.005384115      0.008010414           
 NEB|      H                      -0.001014005     -0.000131185     -0.002364722           
 NEB|      H                      -0.001920996      0.001416653      0.000069586           
 NEB|      H                       0.002519027      0.001797229      0.005135476           
 NEB|      H                      -0.000797566     -0.002005844      0.002013547           
 NEB|      H                      -0.003354589      0.004269180      0.000256818           
 NEB|      H                      -0.002094821      0.000501753     -0.003026856           
 NEB|      H                      -0.002737107      0.002083191     -0.003808197           
 NEB|      H                      -0.001780129      0.001385599     -0.003040404           
 NEB|      H                      -0.002344140      0.000678850     -0.004547383           
 NEB| REPLICA Nr.    5- Energy and Forces
 NEB|                                     Total energy:         -61.591201496440
 NEB|    ATOM                            X                Y                Z
 NEB|      C                       0.017335278     -0.014798910      0.011705568           
 NEB|      C                      -0.001143807      0.007066436     -0.004746143           
 NEB|      O                      -0.000351979     -0.003824903      0.001272381           
 NEB|      H                      -0.002340429      0.001250020     -0.001188077           
 NEB|      C                       0.001452339     -0.002186153      0.002411380           
 NEB|      C                      -0.006960367      0.004694512     -0.006588863           
 NEB|      C                       0.002852090      0.001427986     -0.001095563           
 NEB|      C                      -0.000380809      0.000736721      0.002138624           
 NEB|      C                       0.002867795     -0.003521178      0.003655168           
 NEB|      H                      -0.001640145      0.000516975     -0.001982788           
 NEB|      H                      -0.002205776      0.001586099     -0.000017295           
 NEB|      H                       0.001565147      0.000860349      0.003552560           
 NEB|      H                      -0.000487124     -0.001039726      0.001851452           
 NEB|      H                      -0.002363174      0.002967640      0.001486775           
 NEB|      H                      -0.001987467      0.000466881     -0.002663011           
 NEB|      H                      -0.002095896      0.001275182     -0.003014414           
 NEB|      H                      -0.001847791      0.000961746     -0.003053154           
 NEB|      H                      -0.002498477      0.000733653     -0.004107336           
 NEB| REPLICA Nr.    6- Energy and Forces
 NEB|                                     Total energy:         -61.588939915556
 NEB|    ATOM                            X                Y                Z
 NEB|      C                       0.018401073     -0.017205894      0.013242434           
 NEB|      C                       0.002548958      0.003482489      0.000501697           
 NEB|      O                      -0.002454691      0.001523995     -0.001452721           
 NEB|      H                      -0.003030236      0.001718359     -0.001730394           
 NEB|      C                      -0.001897419      0.000147461     -0.001884441           
 NEB|      C                      -0.002494902      0.000828421     -0.001166570           
 NEB|      C                       0.002507889      0.001882355     -0.002626326           
 NEB|      C                      -0.000585236      0.000798208      0.001563726           
 NEB|      C                      -0.001195598      0.000209214     -0.001817117           
 NEB|      H                      -0.002386586      0.001310634     -0.001498531           
 NEB|      H                      -0.002518331      0.001678475     -0.000192149           
 NEB|      H                       0.000447558     -0.000580469      0.001480338           
 NEB|      H                      -0.000140908      0.000224134      0.001469306           
 NEB|      H                      -0.000906408      0.001397011      0.003133501           
 NEB|      H                      -0.001677608      0.000623534     -0.002085220           
 NEB|      H                      -0.000869061      0.000015207     -0.001481322           
 NEB|      H                      -0.001791008      0.000360203     -0.002823436           
 NEB|      H                      -0.002588000      0.000818591     -0.003191038           
 NEB| REPLICA Nr.    7- Energy and Forces
 NEB|                                     Total energy:         -61.598377025160
 NEB|    ATOM                            X                Y                Z
 NEB|      C                       0.013273950     -0.013844992      0.011119063           
 NEB|      C                       0.010696780     -0.006929976      0.011847211           
 NEB|      O                      -0.003528410      0.005903300     -0.001882364           
 NEB|      H                      -0.002155105      0.002154115     -0.001685349           
 NEB|      C                      -0.005327365      0.007182773     -0.016569677           
 NEB|      C                       0.006898701     -0.007690777      0.009259457           
 NEB|      C                       0.002080775      0.000986339     -0.003442075           
 NEB|      C                       0.000304112     -0.000493814      0.000588011           
 NEB|      C                      -0.014670134      0.009317026     -0.009144203           
 NEB|      H                      -0.002050021      0.001096120     -0.000637573           
 NEB|      H                      -0.002358231      0.000659193     -0.000003780           
 NEB|      H                       0.000388263     -0.000309299      0.001165575           
 NEB|      H                      -0.000083001      0.000161912      0.001155862           
 NEB|      H                      -0.000696683      0.001182389      0.001643176           
 NEB|      H                      -0.001139318      0.000552836     -0.000977816           
 NEB|      H                       0.000172881     -0.000237195      0.001255960           
 NEB|      H                      -0.000447181      0.001036020     -0.001780695           
 NEB|      H                      -0.001582505     -0.000652184     -0.002404894           
 NEB| REPLICA Nr.    8- Energy and Forces
 NEB|                                     Total energy:         -61.618501957089
 NEB|    ATOM                            X                Y                Z
 NEB|      C                       0.008288205     -0.010206699      0.008453415           
 NEB|      C                       0.018793897     -0.017706651      0.023945320           
 NEB|      O                      -0.004383105      0.008547123     -0.002506591           
 NEB|      H                      -0.002207447      0.001398818     -0.000894698           
 NEB|      C                      -0.009504868      0.016135964     -0.031022092           
 NEB|      C                       0.013754506     -0.014146484      0.017089696           
 NEB|      C                       0.001661079     -0.000165112     -0.003837057           
 NEB|      C                       0.001118136     -0.001562824     -0.000108812           
 NEB|      C                      -0.023709249      0.016679876     -0.013575081           
 NEB|      H                      -0.001699050      0.000883664     -0.000339879           
 NEB|      H                      -0.002297040      0.000099639     -0.000159032           
 NEB|      H                       0.000257883     -0.000101557      0.000742372           
 NEB|      H                      -0.000119347      0.000126515      0.000884295           
 NEB|      H                      -0.000241963      0.000802405      0.000475198           
 NEB|      H                      -0.000216385      0.000862977     -0.000269784           
 NEB|      H                       0.001063273     -0.000882523      0.002449522           
 NEB|      H                      -0.000021557      0.000547133     -0.000757188           
 NEB|      H                      -0.001089617     -0.000429445     -0.001271402           
 NEB| REPLICA Nr.    9- Energy and Forces
 NEB|                                     Total energy:         -61.642147197799
 NEB|    ATOM                            X                Y                Z
 NEB|      C                       0.004655686     -0.005993166      0.005258068           
 NEB|      C                       0.018288609     -0.018849678      0.023490768           
 NEB|      O                      -0.003456582      0.005586716     -0.001944990           
 NEB|      H                      -0.002079876     -0.000160018      0.000472487           
 NEB|      C                      -0.009470221      0.017355168     -0.030157417           
[...]
 NEB|      C                      -0.007291721      0.016412434     -0.020852881           
 NEB|      C                       0.012494624     -0.013356385      0.015329095           
 NEB|      C                       0.001781288     -0.002773555      0.000200754           
 NEB|      C                       0.002813075     -0.003925205      0.001622227           
 NEB|      C                      -0.018416379      0.017475211     -0.012424392           
 NEB|      H                      -0.001729079      0.000776312     -0.000872523           
 NEB|      H                      -0.000823586      0.000895612     -0.002146642           
 NEB|      H                      -0.000837661      0.000193992      0.001689664           
 NEB|      H                      -0.001105362     -0.000011464      0.002103522           
 NEB|      H                       0.005491100     -0.004950840     -0.004350511           
 NEB|      H                       0.001271627      0.006385957     -0.003140657           
 NEB|      H                       0.002505041     -0.002078129     -0.002083880           
 NEB|      H                      -0.003406327     -0.001652780      0.001609275           
 NEB|      H                      -0.003449095      0.006579819      0.000283536           
 NEB| REPLICA Nr.    9- Energy and Forces
 NEB|                                     Total energy:         -61.653557821010
 NEB|    ATOM                            X                Y                Z
 NEB|      C                       0.000149838     -0.000318944      0.000390609           
 NEB|      C                       0.000240041     -0.000291971      0.000386879           
 NEB|      O                       0.000054495      0.000039171     -0.000020164           
 NEB|      H                       0.000413236     -0.000860645      0.000335415           
 NEB|      C                      -0.000210691      0.000442677     -0.000323124           
 NEB|      C                       0.000420487     -0.000268314      0.000566796           
 NEB|      C                       0.000213831     -0.000255563      0.000434563           
 NEB|      C                       0.000223485     -0.000453188      0.000269910           
 NEB|      C                      -0.000160599      0.000541570     -0.000211332           
 NEB|      H                      -0.000419256      0.000246258     -0.000194651           
 NEB|      H                      -0.000253587      0.000364192     -0.000165931           
 NEB|      H                      -0.000257371     -0.000090600      0.000268385           
 NEB|      H                      -0.000106504     -0.000172541      0.000179178           
 NEB|      H                       0.000993082     -0.001034766     -0.000981528           
 NEB|      H                      -0.000321416      0.000646514     -0.000467959           
 NEB|      H                       0.000533880      0.000022107     -0.000164646           
 NEB|      H                      -0.000345174      0.000041376      0.000251457           
 NEB|      H                      -0.000568589      0.000480267     -0.000395609           
 NEB| REPLICA Nr.   10- Energy and Forces
 NEB|                                     Total energy:         -61.653661447192
 NEB|    ATOM                            X                Y                Z
 NEB|      C                       0.000343870      0.000312211      0.000970214           
 NEB|      C                       0.000267961      0.000070240     -0.000304051           
 NEB|      O                      -0.001149748     -0.000605951     -0.000795205           
 NEB|      H                       0.000246966     -0.000139267     -0.000099718           
 NEB|      C                       0.000077389      0.000050953     -0.000192424           
 NEB|      C                       0.000021793     -0.000275492      0.000089087           
 NEB|      C                      -0.000449164     -0.000241228      0.000037816           
 NEB|      C                      -0.000500585     -0.000343669      0.000194603           
 NEB|      C                       0.000157857     -0.000041126     -0.000028021           
 NEB|      H                       0.000069797     -0.000077182     -0.000022482           
 NEB|      H                       0.000049952     -0.000002255     -0.000210760           
 NEB|      H                       0.000362871      0.000296633      0.000024974           
 NEB|      H                       0.000172664     -0.000062752     -0.000034414           
 NEB|      H                       0.000188948      0.000423050     -0.000121998           
 NEB|      H                      -0.000107469      0.000077777     -0.000099489           
 NEB|      H                      -0.000228929     -0.000040278     -0.000166536           
 NEB|      H                      -0.000072098     -0.000036708     -0.000164568           
 NEB|      H                       0.000137041     -0.000117179      0.000019071           

 *******************************************************************************
 BAND TYPE                     =                                          CI-NEB
 BAND TYPE OPTIMIZATION        =                                            DIIS
 STEP NUMBER                   =                                              49
 NUMBER OF NEB REPLICA         =                                              10
 DISTANCES REP =        0.523086        0.521810        0.522847        0.519675
                        0.518282        0.488819        0.494172        0.504409
                        0.520449
 ENERGIES [au] =      -61.612759      -61.612611      -61.611953      -61.609925
                      -61.604753      -61.598942      -61.610936      -61.640612
                      -61.653558      -61.653661
 BAND TOTAL ENERGY [au]        =                             -616.20964312667502
 *******************************************************************************

 -------------------------------------------------------------------------------
 -                                                                             -
 -                                DBCSR STATISTICS                             -
 -                                                                             -
 -------------------------------------------------------------------------------
 COUNTER                                    TOTAL       BLAS       SMM       ACC
 flops     5 x     5 x     8            511984000     100.0%      0.0%      0.0%
 flops     5 x     8 x     5            612000000     100.0%      0.0%      0.0%
 flops    13 x     5 x     8            943912320     100.0%      0.0%      0.0%
 flops     5 x    13 x     8            992318080     100.0%      0.0%      0.0%
 flops     5 x     8 x    13           1272960000     100.0%      0.0%      0.0%
 flops    13 x     8 x     5           1272960000     100.0%      0.0%      0.0%
 flops    13 x    13 x     8           2265389568     100.0%      0.0%      0.0%
 flops    13 x     8 x    13           2647756800     100.0%      0.0%      0.0%
 flops     5 x     5 x    32           4095872000     100.0%      0.0%      0.0%
 flops     5 x    32 x     5           4896000000     100.0%      0.0%      0.0%
 flops    13 x     5 x    32           7551298560     100.0%      0.0%      0.0%
 flops     5 x    13 x    32           7938544640     100.0%      0.0%      0.0%
 flops    13 x    32 x     5          10183680000     100.0%      0.0%      0.0%
 flops     5 x    32 x    13          10183680000     100.0%      0.0%      0.0%
 flops    13 x    13 x    32          18123116544     100.0%      0.0%      0.0%
 flops    13 x    32 x    13          21182054400     100.0%      0.0%      0.0%
 flops inhomo. stacks                           0       0.0%      0.0%      0.0%
 flops total                        94.673527E+09     100.0%      0.0%      0.0%
 flops max/rank                      1.639102E+09     100.0%      0.0%      0.0%
 matmuls inhomo. stacks                         0       0.0%      0.0%      0.0%
 matmuls total                           26810136     100.0%      0.0%      0.0%
 number of processed stacks               4812240     100.0%      0.0%      0.0%
 average stack size                                     5.6       0.0       0.0
 marketing flops                    76.535914E+09
 -------------------------------------------------------------------------------
 # multiplications                           2902
 max memory usage/rank               1.403027E+09
 # max total images/rank                        3
 # max 3D layers                                1
 # MPI messages exchanged                 3702912
 MPI messages size (bytes):
  total size                        28.257284E+09
  min size                           0.000000E+00
  max size                          20.480000E+03
  average size                       7.631098E+03
 MPI breakdown and total messages size (bytes):
             size <=      128             1392456                        0
       128 < size <=     8192              927016               4568334848
      8192 < size <=    32768             1383440              23688945280
     32768 < size <=   131072                   0                        0
    131072 < size <=  4194304                   0                        0
   4194304 < size <= 16777216                   0                        0
  16777216 < size                               0                        0
 -------------------------------------------------------------------------------

 *** WARNING in dbcsr_mm.F:294 :: Using a non-square number of MPI ranks ***
 *** might lead to poor performance. Used ranks: 12 Suggested: 9 25      ***

 -------------------------------------------------------------------------------
 -                                                                             -
 -                      DBCSR MESSAGE PASSING PERFORMANCE                      -
 -                                                                             -
 -------------------------------------------------------------------------------
 ROUTINE             CALLS      AVE VOLUME [Bytes]
 MP_Bcast               17                     12.
 MP_Allreduce        13627                      8.
 MP_Alltoall         64954                   6346.
 MP_ISend            69648                   3746.
 MP_IRecv            69648                   3054.
 -------------------------------------------------------------------------------

 -------------------------------------------------------------------------------
 -                                                                             -
 -                                GRID STATISTICS                              -
 -                                                                             -
 -------------------------------------------------------------------------------
 LP    KERNEL             BACKEND                              COUNT     PERCENT
 1     collocate ortho    REF                               24457754      18.66%
 2     collocate ortho    REF                               21786938      16.62%
 1     integrate ortho    REF                               20675952      15.78%
 2     integrate ortho    REF                               18419150      14.05%
 0     collocate ortho    REF                               10952664       8.36%
 0     integrate ortho    REF                                9258990       7.06%
 3     integrate ortho    REF                                7842970       5.98%
 3     collocate ortho    REF                                7273108       5.55%
 4     integrate ortho    REF                                4395674       3.35%
 5     integrate ortho    REF                                3367788       2.57%
 6     integrate ortho    REF                                1123812       0.86%
 4     collocate ortho    REF                                 726192       0.55%
 0     collocate general  REF                                 336960       0.26%
 3     integrate general  REF                                 336960       0.26%
 7     integrate ortho    REF                                 112320       0.09%
 -------------------------------------------------------------------------------

 MEMORY| Estimated peak process memory [MiB]                                1340

 -------------------------------------------------------------------------------
 ----                             MULTIGRID INFO                            ----
 -------------------------------------------------------------------------------
 count for grid        1:         459840          cutoff [a.u.]          170.00
 count for grid        2:         270240          cutoff [a.u.]           56.67
 count for grid        3:         157920          cutoff [a.u.]           18.89
 count for grid        4:          20160          cutoff [a.u.]            6.30
 total gridlevel count  :         908160

 -------------------------------------------------------------------------------
 -                                                                             -
 -                         MESSAGE PASSING PERFORMANCE                         -
 -                                                                             -
 -------------------------------------------------------------------------------

 ROUTINE             CALLS      AVE VOLUME [Bytes]
 MP_Group                5
 MP_Bcast               98                6809553.
 MP_Allreduce          325                   1781.
 MP_Sync                 4
 -------------------------------------------------------------------------------


 -------------------------------------------------------------------------------
 -                                                                             -
 -                           R E F E R E N C E S                               -
 -                                                                             -
 -------------------------------------------------------------------------------
 
 CP2K version 9.1, the CP2K developers group (2021).
 CP2K is freely available from https://www.cp2k.org/ .

 Kuehne,Thomas D.; Iannuzzi,Marcella; Del Ben,Mauro;
 Rybkin,Vladimir V.; Seewald,Patrick; Stein,Frederick; Laino,Teodoro;
 Khaliullin,Rustam Z.; Schuett,Ole; Schiffmann,Florian; Golze,Dorothea;
 Wilhelm,Jan; Chulkov,Sergey; Bani-Hashemian,Mohammad Hossein;
 Weber,Valery; Borstnik,Urban; Taillefumier,Mathieu;
 Jakobovits,Alice Shoshana; Lazzaro,Alfio; Pabst,Hans; Mueller,Tiziano;
 Schade,Robert; Guidon,Manuel; Andermatt,Samuel; Holmberg,Nico;
 Schenter,Gregory K.; Hehn,Anna; Bussy,Augustin; Belleflamme,Fabian;
 Tabacchi,Gloria; Gloess,Andreas; Lass,Michael; Bethune,Iain;
 Mundy,Christopher J.; Plessl,Christian; Watkins,Matt;
 VandeVondele,Joost; Krack,Matthias; Hutter,Juerg. 
 The Journal of Chemical Physics, 152 (19), (2020). 
 CP2K: An electronic structure and molecular dynamics software package -
 Quickstep: Efficient and accurate electronic structure calculations.
 https://doi.org/10.1063/5.0007045

 Schuett, Ole; Messmer, Peter; Hutter, Juerg; VandeVondele, Joost. 
 Electronic Structure Calculations on Graphics Processing Units, John
 Wiley & Sons, Ltd, 173-190 (2016). 
 GPU-Accelerated Sparse Matrix-Matrix Multiplication for
 Linear Scaling Density Functional Theory.
 https://doi.org/10.1002/9781118670712.ch8

 Borstnik, U; VandeVondele, J; Weber, V; Hutter, J. 
 PARALLEL COMPUTING, 40 (5-6), 47-58 (2014). 
 Sparse matrix multiplication: The distributed block-compressed sparse
 row library.
 https://doi.org/10.1016/j.parco.2014.03.012

 Hutter, J; Iannuzzi, M; Schiffmann, F; VandeVondele, J. 
 WIREs Comput Mol Sci., 4 (1), 15-25 (2014). 
 CP2K: atomistic simulations of condensed matter systems.
 https://doi.org/10.1002/wcms.1159

 Genovese, L; Deutsch, T; Goedecker, S. 
 JOURNAL OF CHEMICAL PHYSICS, 127 (5), 054704 (2007). 
 Efficient and accurate three-dimensional Poisson solver for surface
 problems.
 https://doi.org/10.1063/1.2754685

 Kuhne, TD; Krack, M; Mohamed, FR; Parrinello, M. 
 PHYSICAL REVIEW LETTERS, 98 (6), 066401 (2007). 
 Efficient and accurate Car-Parrinello-like approach to
 Born-Oppenheimer molecular dynamics.
 https://doi.org/10.1103/PhysRevLett.98.066401

 Genovese, L; Deutsch, T; Neelov, A; Goedecker, S; Beylkin, G. 
 JOURNAL OF CHEMICAL PHYSICS, 125 (7), 074105 (2006). 
 Efficient solution of Poisson's equation with free boundary conditions.
 https://doi.org/10.1063/1.2335442

 Krack, M. 
 THEORETICAL CHEMISTRY ACCOUNTS, 114 (1-3), 145-152 (2005). 
 Pseudopotentials for H to Kr optimized for gradient-corrected
 exchange-correlation functionals.
 https://doi.org/10.1007/s00214-005-0655-y

 VandeVondele, J; Krack, M; Mohamed, F; Parrinello, M; Chassaing, T;
 Hutter, J. COMPUTER PHYSICS COMMUNICATIONS, 167 (2), 103-128 (2005). 
 QUICKSTEP: Fast and accurate density functional calculations using a
 mixed Gaussian and plane waves approach.
 https://doi.org/10.1016/j.cpc.2004.12.014

 Frigo, M; Johnson, SG. 
 PROCEEDINGS OF THE IEEE, 93 (2), 216-231 (2005). 
 The design and implementation of FFTW3.
 https://doi.org/10.1109/JPROC.2004.840301

 Kolafa, J. 
 JOURNAL OF COMPUTATIONAL CHEMISTRY, 25 (3), 335-342 (2004). 
 Time-reversible always stable predictor-corrector method for
 molecular dynamics of polarizable molecules.
 https://doi.org/10.1002/jcc.10385

 Henkelman, G; Uberuaga, BP; Jonsson, H. 
 JOURNAL OF CHEMICAL PHYSICS, 113 (22), 9901-9904 (2000). 
 A climbing image nudged elastic band method for finding saddle points
 and minimum energy paths.
 https://doi.org/10.1063/1.1329672

 Henkelman, G; Jonsson, H. 
 JOURNAL OF CHEMICAL PHYSICS, 113 (22), 9978-9985 (2000). 
 Improved tangent estimate in the nudged elastic band method for finding
 minimum energy paths and saddle points.
 https://doi.org/10.1063/1.1323224

 Hartwigsen, C; Goedecker, S; Hutter, J. 
 PHYSICAL REVIEW B, 58 (7), 3641-3662 (1998). 
 Relativistic separable dual-space Gaussian pseudopotentials from H to Rn.
 https://doi.org/10.1103/PhysRevB.58.3641

 Lippert, G; Hutter, J; Parrinello, M. 
 MOLECULAR PHYSICS, 92 (3), 477-487 (1997). 
 A hybrid Gaussian and plane wave density functional scheme.
 https://doi.org/10.1080/002689797170220

 Goedecker, S; Teter, M; Hutter, J. 
 PHYSICAL REVIEW B, 54 (3), 1703-1710 (1996). 
 Separable dual-space Gaussian pseudopotentials.
 https://doi.org/10.1103/PhysRevB.54.1703


 -------------------------------------------------------------------------------
 -                                                                             -
 -                                T I M I N G                                  -
 -                                                                             -
 -------------------------------------------------------------------------------
 SUBROUTINE                       CALLS  ASD         SELF TIME        TOTAL TIME
                                MAXIMUM       AVERAGE  MAXIMUM  AVERAGE  MAXIMUM
 CP2K                                 1  1.0    0.088    0.092 1933.774 1933.774
 neb                                  1  2.0 1933.016 1933.073 1933.273 1933.316
 -------------------------------------------------------------------------------

 The number of warnings for this run is : 1
 
 -------------------------------------------------------------------------------
  **** **** ******  **  PROGRAM ENDED AT                 2022-06-16 11:05:49.691
 ***** ** ***  *** **   PROGRAM RAN ON               Orion-20-64.HPC.MsState.Edu
 **    ****   ******    PROGRAM RAN BY                                     wnw36
 ***** **    ** ** **   PROGRAM PROCESS ID                                257274
  **** **  *******  **  PROGRAM STOPPED IN /work/hpc/users/wnw36/MSU-DFT-Catalys
                                           is-School/5_NEB/2_Diels-Alder
