      18
 i =       0, E =      -61.5932081907
  C         7.2910869961        6.8597509796        6.0888775230
  C         8.3235799449        7.6529364778        6.6254246762
  O         7.8229364408        8.3763094229        7.6633115346
  H         9.2635602351        8.0140904002        6.2003059745
  C         9.2422905759        6.2214282882        8.4636756871
  C         6.7317207761        7.6726731834        8.1006665593
  C         6.3105064299        6.8106798780        7.0712442349
  C         5.8566581604        8.3622609676        9.0690821786
  C         8.1232565326        6.3108602264        9.2822148142
  H         7.4138936573        6.2047687465        5.2212225144
  H         5.4281900040        6.1687144827        7.0980199614
  H         6.4390749217        8.8785739608        9.8314416090
  H         5.1762782470        7.6448411310        9.5505495893
  H         5.2480299006        9.0948691406        8.5391817662
  H         7.4851983062        5.4432766943        9.4376519418
  H         8.1173401436        7.0461070235       10.0984523650
  H        10.0601904734        6.9403707868        8.5944101589
  H         9.4866382737        5.2979268861        7.9554380586
      18
 i =       1, E =      -61.5958365647
  C         7.3211731821        6.8450815762        6.0935636193
  C         8.3164598685        7.6617933389        6.6166345063
  O         7.8250722625        8.3670483400        7.6678588423
  H         9.2611541798        8.0147218889        6.1992981611
  C         9.2290800143        6.2278844253        8.4810535492
  C         6.7217118713        7.6797285861        8.0901012720
  C         6.3069478532        6.8127017040        7.0784156920
  C         5.8581811970        8.3550981941        9.0722762331
  C         8.1435011356        6.3091676909        9.2767613313
  H         7.4111587170        6.2064681952        5.2205308829
  H         5.4263914504        6.1704867172        7.0980758524
  H         6.4435014947        8.8826339969        9.8396530990
  H         5.1758708448        7.6433203602        9.5525220234
  H         5.2411516148        9.1034842177        8.5360069654
  H         7.4790951168        5.4391892904        9.4356244227
  H         8.1141684105        7.0491391273       10.0957462539
  H        10.0594942341        6.9421397444        8.5909931023
  H         9.4866482702        5.2906743189        7.9460609860
      18
 i =       2, E =      -61.5975269901
  C         7.3231042154        6.8378970902        6.1033691166
  C         8.3167566229        7.6680169943        6.6121821455
  O         7.8258315732        8.3633887940        7.6698296967
  H         9.2605836556        8.0152145966        6.1990655454
  C         9.2443232568        6.2199149515        8.4742530179
  C         6.7160034788        7.6842644223        8.0843819347
  C         6.3128707349        6.8121475276        7.0740181608
  C         5.8571979523        8.3599473130        9.0734030932
  C         8.1343032635        6.3039847770        9.2911420336
  H         7.4112616228        6.2054835413        5.2177279004
  H         5.4250657479        6.1711524326        7.0982291595
  H         6.4439483068        8.8829623126        9.8411545018
  H         5.1752824290        7.6415346548        9.5541961724
  H         5.2408767051        9.1032857643        8.5376295131
  H         7.4799353571        5.4424997983        9.4328451959
  H         8.1122208883        7.0503298409       10.0921153162
  H        10.0572839165        6.9431767381        8.5890317589
  H         9.4836622925        5.2958325555        7.9459702504
      18
 i =       3, E =      -61.5986436275
  C         7.3316625292        6.8281977609        6.1060355449
  C         8.3144498574        7.6723804062        6.6099011823
  O         7.8271989023        8.3604001618        7.6716810691
  H         9.2618443593        8.0163296164        6.1980744427
  C         9.2358364998        6.2185058749        8.4852617905
  C         6.7116545131        7.6894151440        8.0800023647
  C         6.3115912067        6.8089042448        7.0739684231
  C         5.8555314673        8.3619876316        9.0746706510
  C         8.1480174853        6.2999987315        9.2869044045
  H         7.4108109664        6.2062403005        5.2170786678
  H         5.4259058388        6.1733657688        7.0980525109
  H         6.4446303656        8.8844257208        9.8428556054
  H         5.1761155038        7.6407045196        9.5558491718
  H         5.2392161030        9.1037319764        8.5384013656
  H         7.4761411159        5.4414614546        9.4310033937
  H         8.1088399833        7.0546829362       10.0906544322
  H        10.0570322624        6.9464127966        8.5863888661
  H         9.4826714667        5.2951319285        7.9417774302
      18
 i =       4, E =      -61.5994592422
  C         7.3358416246        6.8235366391        6.1105717343
  C         8.3134214050        7.6746362143        6.6068673065
  O         7.8275207181        8.3585322921        7.6727592200
  H         9.2622564871        8.0169569390        6.1977972142
  C         9.2456109240        6.2152793480        8.4833016718
  C         6.7074121719        7.6921127664        8.0754841833
  C         6.3144241312        6.8089614917        7.0742683876
  C         5.8550393040        8.3630673893        9.0755627546
  C         8.1437803718        6.2970297912        9.2965460387
  H         7.4110275570        6.2057405132        5.2154286059
  H         5.4249664816        6.1737578367        7.0979338098
  H         6.4448214964        8.8854196695        9.8436461707
  H         5.1768441117        7.6402808361        9.5570177961
  H         5.2376628448        9.1042617915        8.5390326130
  H         7.4755084979        5.4432391013        9.4288828669
  H         8.1066301541        7.0559878349       10.0870593045
  H        10.0543256133        6.9470986006        8.5842953026
  H         9.4808604195        5.2973512032        7.9404022033
      18
 i =       5, E =      -61.6001979957
  C         7.3411840756        6.8169885170        6.1130757578
  C         8.3130119666        7.6772282038        6.6048565449
  O         7.8278686260        8.3567262994        7.6733863979
  H         9.2629175665        8.0176686164        6.1974233322
  C         9.2412349382        6.2136256660        8.4913873697
  C         6.7039356578        7.6962592187        8.0723571837
  C         6.3146306925        6.8066318996        7.0744780592
  C         5.8542158601        8.3641420875        9.0759952500
  C         8.1529933658        6.2937164280        9.2955062056
  H         7.4112287443        6.2057787933        5.2145386932
  H         5.4251229236        6.1750452130        7.0977028532
  H         6.4449837675        8.8868460488        9.8442241526
  H         5.1779942394        7.6398773059        9.5585968299
  H         5.2356266107        9.1045681594        8.5398333547
  H         7.4723607183        5.4429055604        9.4271066793
  H         8.1033334289        7.0596535572       10.0849462904
  H        10.0534432834        6.9499473878        8.5817504554
  H         9.4798702787        5.2972650487        7.9370105644
      18
 i =       6, E =      -61.6007326908
  C         7.3446854383        6.8134012304        6.1157814505
  C         8.3120386740        7.6783447892        6.6030244806
  O         7.8279863511        8.3556720198        7.6736582927
  H         9.2635307914        8.0182896469        6.1971911897
  C         9.2476847808        6.2111178583        8.4911169460
  C         6.7011049375        7.6984714568        8.0687881865
  C         6.3162748498        6.8061180249        7.0751521791
  C         5.8536869999        8.3650641777        9.0764543785
  C         8.1510069370        6.2911914688        9.3023280897
  H         7.4116504909        6.2053659455        5.2135770484
  H         5.4246011344        6.1754750670        7.0975094982
  H         6.4449677724        8.8878297924        9.8443746309
  H         5.1789133151        7.6396513336        9.5597306693
  H         5.2339689050        9.1048506981        8.5406156882
  H         7.4713687624        5.4441633544        9.4253758674
  H         8.1010942643        7.0612530559       10.0820103481
  H        10.0513184464        6.9509963152        8.5798063714
  H         9.4784871318        5.2988481617        7.9355541488
      18
 i =       7, E =      -61.6010082324
  C         7.3463641070        6.8112156185        6.1166924145
  C         8.3120731830        7.6790258806        6.6023290922
  O         7.8280034467        8.3552307468        7.6736412378
  H         9.2637391023        8.0185611166        6.1971158118
  C         9.2466696028        6.2103723323        8.4938986919
  C         6.6998788970        7.6999437108        8.0675899672
  C         6.3165947745        6.8052733997        7.0752624578
  C         5.8534001261        8.3654543984        9.0764801851
  C         8.1539509396        6.2899090613        9.3024953786
  H         7.4119115235        6.2052372371        5.2132977033
  H         5.4245720546        6.1758600651        7.0973922429
  H         6.4449556087        8.8884241982        9.8443553546
  H         5.1794763544        7.6395522093        9.5603864359
  H         5.2329963569        9.1049513926        8.5410627704
  H         7.4701686766        5.4441510652        9.4246610081
  H         8.0997139050        7.0626712475       10.0810418781
  H        10.0508282357        6.9521054669        8.5787476291
  H         9.4780648874        5.2989473156        7.9342824716
      18
 i =       8, E =      -61.6043234431
  C         7.3793269082        6.7725795426        6.1362013221
  C         8.3092281283        7.6892513946        6.5883102470
  O         7.8281528724        8.3473775935        7.6727353943
  H         9.2687627856        8.0243134663        6.1955077888
  C         9.2581590653        6.1920274994        8.5272171635
  C         6.6757727680        7.7257972867        8.0399626583
  C         6.3260014653        6.7922017542        7.0797312408
  C         5.8478226217        8.3735655563        9.0775598523
  C         8.1821264530        6.2650538190        9.3300916553
  H         7.4178701819        6.2013827974        5.2073930208
  H         5.4226034827        6.1820637485        7.0949950512
  H         6.4443583826        8.8999697517        9.8429514527
  H         5.1908220745        7.6378047607        9.5731324486
  H         5.2133404095        9.1069922112        8.5503629201
  H         7.4512426349        5.4489729025        9.4094315884
  H         8.0734031341        7.0865763424       10.0576321839
  H        10.0363318162        6.9701816946        8.5579208382
  H         9.4677018580        5.3064168978        7.9131142882
      18
 i =       9, E =      -61.6045308996
  C         7.3788763758        6.7732000132        6.1360768445
  C         8.3094299778        7.6879087881        6.5883937043
  O         7.8275636226        8.3486545440        7.6713544867
  H         9.2686371251        8.0248196095        6.1955035061
  C         9.2640954259        6.1909122602        8.5245551356
  C         6.6757629285        7.7257351402        8.0388690854
  C         6.3269609673        6.7922615636        7.0798812050
  C         5.8475071460        8.3739194555        9.0768800355
  C         8.1773853429        6.2648227131        9.3355937583
  H         7.4193222221        6.2002647245        5.2082305031
  H         5.4222841344        6.1817915805        7.0946617259
  H         6.4442920648        8.9002290202        9.8417905054
  H         5.1916615140        7.6380435043        9.5734512634
  H         5.2115748920        9.1076020310        8.5520031049
  H         7.4516119039        5.4498440442        9.4090073945
  H         8.0727146976        7.0859615700       10.0559085449
  H        10.0349375135        6.9698055596        8.5572234780
  H         9.4670840696        5.3075676230        7.9131236442
      18
 i =      10, E =      -61.6046736556
  C         7.3783218041        6.7733823131        6.1352730829
  C         8.3106331962        7.6864493261        6.5890014256
  O         7.8266912853        8.3503967534        7.6691555636
  H         9.2682462752        8.0255064178        6.1954695825
  C         9.2603292867        6.1905272516        8.5292094535
  C         6.6759461136        7.7265512248        8.0383706542
  C         6.3271422578        6.7912123768        7.0796280422
  C         5.8470917362        8.3743240296        9.0755657773
  C         8.1821025820        6.2637933361        9.3337530892
  H         7.4217153482        6.1984174746        5.2097929224
  H         5.4224113217        6.1817518040        7.0941211452
  H         6.4442675683        8.9007860304        9.8398634519
  H         5.1930744267        7.6383492088        9.5740653795
  H         5.2086073885        9.1085099097        8.5545424894
  H         7.4503265943        5.4495126921        9.4088035516
  H         8.0710217452        7.0870125496       10.0551955178
  H        10.0345942471        6.9708186320        8.5559885159
  H         9.4668265648        5.3075021953        7.9116979039
      18
 i =      11, E =      -61.6048114868
  C         7.3785334689        6.7735904567        6.1352038185
  C         8.3105976273        7.6858671990        6.5888737876
  O         7.8263138348        8.3509750194        7.6682848391
  H         9.2681761611        8.0259712929        6.1953411486
  C         9.2645857372        6.1895438838        8.5274005993
  C         6.6754636397        7.7270115187        8.0371401783
  C         6.3274968128        6.7912124978        7.0798648382
  C         5.8468361326        8.3747132864        9.0750744227
  C         8.1788858102        6.2631727639        9.3376039957
  H         7.4231658673        6.1970968707        5.2104803246
  H         5.4223244649        6.1816146869        7.0938091673
  H         6.4443443965        8.9010627194        9.8388622266
  H         5.1938394615        7.6384565001        9.5743653767
  H         5.2068995982        9.1091400048        8.5560380670
  H         7.4504949940        5.4500967357        9.4084970782
  H         8.0703172960        7.0868954379       10.0541481310
  H        10.0335949571        6.9706398363        8.5553862100
  H         9.4662686834        5.3084272182        7.9116085283
      18
 i =      12, E =      -61.6048866163
  C         7.3785583246        6.7734716991        6.1350747957
  C         8.3108477887        7.6856911238        6.5888867688
  O         7.8260860504        8.3513078316        7.6677758318
  H         9.2680674799        8.0262218117        6.1952661067
  C         9.2635193622        6.1893665341        8.5288022599
  C         6.6752117694        7.7275047945        8.0367282339
  C         6.3275529990        6.7909727592        7.0797518780
  C         5.8466630368        8.3749270923        9.0747127392
  C         8.1803639637        6.2627604078        9.3371302728
  H         7.4240735010        6.1962872346        5.2109713634
  H         5.4223643041        6.1815882337        7.0936227352
  H         6.4444289132        8.9012656880        9.8382587871
  H         5.1943219383        7.6385045740        9.5745657307
  H         5.2058498852        9.1094979940        8.5569394869
  H         7.4500549334        5.4499296349        9.4084376822
  H         8.0697526053        7.0872668433       10.0539883308
  H        10.0335003028        6.9709531651        8.5549923359
  H         9.4661437214        5.3084187459        7.9111186692
      18
 i =      13, E =      -61.6066687689
  C         7.3835041659        6.7697741261        6.1319089112
  C         8.3154003146        7.6790172798        6.5866302249
  O         7.8175112119        8.3631733668        7.6492514988
  H         9.2649352911        8.0368900464        6.1915983378
  C         9.2693960653        6.1769184665        8.5509652817
  C         6.6620945575        7.7467169605        8.0140540754
  C         6.3309134050        6.7850205530        7.0775552078
  C         5.8393176351        8.3845608998        9.0619212493
  C         8.1937283867        6.2466702396        9.3560812891
  H         7.4611498173        6.1622732080        5.2301198497
  H         5.4231235934        6.1798630314        7.0860489071
  H         6.4484221590        8.9091697537        9.8145754862
  H         5.2135509388        7.6400946735        9.5823095273
  H         5.1636278874        9.1245014564        8.5935390716
  H         7.4398669921        5.4498800311        9.4044523145
  H         8.0492417409        7.0956318410       10.0416357298
  H        10.0230879216        6.9774407522        8.5399053571
  H         9.4579429042        5.3155958402        7.8970859356
      18
 i =      14, E =      -61.6069061628
  C         7.3858384238        6.7671943159        6.1326589877
  C         8.3131742538        7.6828631457        6.5841842297
  O         7.8174820548        8.3621991133        7.6504833798
  H         9.2651255033        8.0371921485        6.1908955510
  C         9.2746805383        6.1759046990        8.5478095452
  C         6.6585594606        7.7489050136        8.0108934741
  C         6.3303816284        6.7867645717        7.0762261307
  C         5.8379577386        8.3860668252        9.0627272082
  C         8.1897783002        6.2460700060        9.3609665622
  H         7.4625182616        6.1603469972        5.2308423583
  H         5.4230947079        6.1795921800        7.0858461395
  H         6.4498152199        8.9093862003        9.8148885308
  H         5.2139093026        7.6395999106        9.5820050036
  H         5.1631549432        9.1250086276        8.5948615273
  H         7.4411104179        5.4496781077        9.4047028395
  H         8.0499019529        7.0941360427       10.0415456385
  H        10.0228394632        6.9762314860        8.5405455913
  H         9.4575018514        5.3159000013        7.8976903359
      18
 i =      15, E =      -61.6070765009
  C         7.3872412191        6.7659783503        6.1335603836
  C         8.3119713310        7.6849205884        6.5827519034
  O         7.8171269973        8.3619098600        7.6509700152
  H         9.2651462702        8.0374595320        6.1904751617
  C         9.2706578958        6.1759403667        8.5510373680
  C         6.6565666797        7.7508733236        8.0096712938
  C         6.3296512904        6.7871844294        7.0747057236
  C         5.8375763444        8.3866775571        9.0631136695
  C         8.1943052591        6.2452613730        9.3583711062
  H         7.4636930455        6.1587128445        5.2313676187
  H         5.4233104265        6.1795547931        7.0856359815
  H         6.4507223371        8.9094773440        9.8149662207
  H         5.2141338884        7.6392542606        9.5818982976
  H         5.1624931374        9.1256757048        8.5957254770
  H         7.4408987507        5.4486134565        9.4050550350
  H         8.0500508188        7.0941427206       10.0425397267
  H        10.0237039118        6.9762940631        8.5408597692
  H         9.4575234936        5.3150450597        7.8971256060
      18
 i =      16, E =      -61.6072162296
  C         7.3888266781        6.7645265763        6.1342004939
  C         8.3105929209        7.6872859986        6.5811543954
  O         7.8165684391        8.3618067540        7.6513237744
  H         9.2651094104        8.0378247099        6.1900312300
  C         9.2740425807        6.1752112384        8.5489687747
  C         6.6541841553        7.7525772153        8.0073632010
  C         6.3290735439        6.7883966927        7.0737136749
  C         5.8370844313        8.3874870950        9.0636188095
  C         8.1917308569        6.2446167351        9.3615400729
  H         7.4652631588        6.1567585033        5.2322937329
  H         5.4233673408        6.1793332450        7.0852762375
  H         6.4517804407        8.9095377154        9.8149908835
  H         5.2144326812        7.6388757024        9.5817917255
  H         5.1616237736        9.1265534658        8.5969270253
  H         7.4418644013        5.4484375572        9.4052222106
  H         8.0505971722        7.0930195760       10.0426869392
  H        10.0235453999        6.9753415649        8.5413529451
  H         9.4570255974        5.3152995589        7.8974572545
      18
 i =      17, E =      -61.6072941635
  C         7.3893413960        6.7640463054        6.1345173696
  C         8.3101635891        7.6880821161        6.5806694264
  O         7.8162604820        8.3619319878        7.6512848831
  H         9.2650639425        8.0380035820        6.1898728734
  C         9.2723713127        6.1752123138        8.5502803836
  C         6.6533597617        7.7534149165        8.0067687132
  C         6.3287667714        6.7886288830        7.0730809729
  C         5.8369045580        8.3877602131        9.0637075918
  C         8.1935919328        6.2442836095        9.3604912289
  H         7.4660122776        6.1558600425        5.2327610798
  H         5.4234519546        6.1792765751        7.0850960548
  H         6.4522233042        8.9095457222        9.8149675463
  H         5.2145777559        7.6387355465        9.5817756490
  H         5.1612396194        9.1269326884        8.5974832371
  H         7.4417936909        5.4479549176        9.4053569914
  H         8.0507046490        7.0929339611       10.0431441762
  H        10.0238923523        6.9753073106        8.5415030108
  H         9.4569466836        5.3149703297        7.8971746342
      18
 i =      18, E =      -61.6080242539
  C         7.3983723837        6.7562529998        6.1391369271
  C         8.3025755000        7.7011460342        6.5723444498
  O         7.8105296481        8.3649054424        7.6500302792
  H         9.2641873972        8.0412711558        6.1873468082
  C         9.2717311941        6.1726689085        8.5522865728
  C         6.6389927773        7.7661130162        7.9940125613
  C         6.3242715216        6.7945504683        7.0645892774
  C         5.8338264219        8.3927244975        9.0655827714
  C         8.1979089127        6.2394964020        9.3638748710
  H         7.4795681533        6.1400768052        5.2416594052
  H         5.4244022112        6.1778203798        7.0816550153
  H         6.4596801315        8.9094131583        9.8141951610
  H         5.2172508986        7.6364822775        9.5815351678
  H         5.1543600738        9.1337330319        8.6076326564
  H         7.4448513653        5.4435745384        9.4067704952
  H         8.0538244200        7.0876414722       10.0475314551
  H        10.0257752335        6.9711819648        8.5444695497
  H         9.4537127737        5.3137587715        7.8957099519
      18
 i =      19, E =      -61.6080571852
  C         7.3968413948        6.7576134893        6.1382884929
  C         8.3044555179        7.6988108876        6.5743214619
  O         7.8082591099        8.3689960439        7.6464969150
  H         9.2634515366        8.0420497912        6.1880836862
  C         9.2745478429        6.1725219779        8.5492807142
  C         6.6398309288        7.7657742542        7.9937876235
  C         6.3246714724        6.7945653879        7.0652777831
  C         5.8338428044        8.3927343469        9.0647429023
  C         8.1939907629        6.2398372561        9.3659519914
  H         7.4830252453        6.1373861393        5.2452786165
  H         5.4243985367        6.1773086170        7.0804378773
  H         6.4598659165        8.9085592374        9.8130055885
  H         5.2180806914        7.6369375823        9.5819083670
  H         5.1532725113        9.1348558307        8.6102847549
  H         7.4450330455        5.4437188871        9.4062120720
  H         8.0543775207        7.0866633556       10.0479149479
  H        10.0252725333        6.9704748369        8.5443950714
  H         9.4521613381        5.3146908193        7.8947091008
      18
 i =      20, E =      -61.6081260271
  C         7.3969270102        6.7579246414        6.1384975131
  C         8.3043731892        7.6984526638        6.5746902784
  O         7.8078413825        8.3697251224        7.6458147462
  H         9.2635180328        8.0422898130        6.1881667546
  C         9.2712100833        6.1728602958        8.5513758614
  C         6.6397998490        7.7662930693        7.9939544950
  C         6.3245229634        6.7941792877        7.0650362380
  C         5.8338100806        8.3927492832        9.0645558407
  C         8.1969109160        6.2397757059        9.3634157076
  H         7.4839382065        6.1364591508        5.2460528870
  H         5.4245658068        6.1772853873        7.0801890331
  H         6.4600353980        8.9083889024        9.8127990844
  H         5.2182912581        7.6369882897        9.5820026436
  H         5.1530006989        9.1351400391        8.6109234580
  H         7.4444702543        5.4432420437        9.4061607657
  H         8.0543456440        7.0869041945       10.0485272103
  H        10.0257268858        6.9707579888        8.5443108128
  H         9.4519509004        5.3143733744        7.8938989555
      18
 i =      21, E =      -61.6081601915
  C         7.3970089890        6.7580362922        6.1386037929
  C         8.3047817500        7.6982607409        6.5753132983
  O         7.8063090545        8.3720701338        7.6439474222
  H         9.2633531051        8.0429450907        6.1885793667
  C         9.2733349139        6.1727646349        8.5488073213
  C         6.6390894302        7.7671987737        7.9928410005
  C         6.3246880620        6.7943463940        7.0653165437
  C         5.8336065475        8.3931159058        9.0642996843
  C         8.1938625651        6.2398828180        9.3651910810
  H         7.4870873291        6.1334709456        5.2489334617
  H         5.4247392790        6.1768818392        7.0793225896
  H         6.4606362346        8.9078013323        9.8121093361
  H         5.2190036603        7.6371172233        9.5822696205
  H         5.1519865821        9.1362126149        8.6131826788
  H         7.4446176512        5.4434404544        9.4056403321
  H         8.0548167279        7.0859182891       10.0489138387
  H        10.0253693196        6.9700287652        8.5442417939
  H         9.4505022260        5.3153012066        7.8928730050
      18
 i =      22, E =      -61.6082123800
  C         7.3971330637        6.7580332777        6.1387775823
  C         8.3047713386        7.6982801326        6.5753906195
  O         7.8059820366        8.3725471371        7.6435982810
  H         9.2633643516        8.0430993677        6.1886589051
  C         9.2710046361        6.1729875357        8.5502812982
  C         6.6389112784        7.7676450089        7.9927886759
  C         6.3246279383        6.7941760960        7.0651000192
  C         5.8335360976        8.3931993696        9.0642155893
  C         8.1959533194        6.2397988665        9.3634638266
  H         7.4878084595        6.1327305827        5.2495612130
  H         5.4248516528        6.1768329262        7.0791641925
  H         6.4608287174        8.9076916365        9.8119987255
  H         5.2191586827        7.6371197165        9.5823279563
  H         5.1517414930        9.1364760455        8.6136911155
  H         7.4442126837        5.4431092850        9.4055859491
  H         8.0548012475        7.0860491419       10.0493512498
  H        10.0256866390        6.9701956873        8.5441776063
  H         9.4503134855        5.3151057166        7.8922532394
      18
 i =      23, E =      -61.6086163873
  C         7.4027700732        6.7558862189        6.1430118665
  C         8.3039610354        7.7019179027        6.5760632438
  O         7.7940243963        8.3893622659        7.6317360259
  H         9.2632807328        8.0486170098        6.1918049035
  C         9.2711705054        6.1732858994        8.5422634882
  C         6.6295077166        7.7796220699        7.9821972992
  C         6.3248324543        6.7950172895        7.0633654487
  C         5.8307682959        8.3975946157        9.0630443151
  C         8.1895848320        6.2388338071        9.3660998133
  H         7.5145936635        6.1058400366        5.2734203525
  H         5.4273746817        6.1736146319        7.0732028321
  H         6.4678228938        8.9034832583        9.8077649031
  H         5.2248673944        7.6371294071        9.5841826071
  H         5.1421950007        9.1467845406        8.6329085725
  H         7.4425218970        5.4427667144        9.4012669815
  H         8.0579251742        7.0794253962       10.0545699846
  H        10.0251459993        6.9656563587        8.5431490720
  H         9.4385797873        5.3208978229        7.8805027275
      18
 i =      24, E =      -61.6088124014
  C         7.4028759303        6.7551739499        6.1430055248
  C         8.3040839768        7.7028987940        6.5759154347
  O         7.7938715607        8.3892966477        7.6315433706
  H         9.2632233282        8.0486972462        6.1918765300
  C         9.2664037479        6.1735462051        8.5458992242
  C         6.6289761495        7.7801537182        7.9820092289
  C         6.3247409725        6.7950870866        7.0629716354
  C         5.8306084798        8.3978398418        9.0630302283
  C         8.1944984759        6.2384056729        9.3626182065
  H         7.5150593191        6.1054286620        5.2739835041
  H         5.4275553808        6.1735569028        7.0732546504