      18
 i =       0, E =      -61.6395589945
  C         7.3609518471        6.7545552595        6.1869692847
  C         8.4811404343        7.4788390414        6.8568468039
  O         7.8413359577        8.4120648244        7.6816532932
  H         9.3021357932        7.9130235553        6.2812757872
  C         9.0587725200        6.4288707038        8.1354672387
  C         6.8561495003        7.5647082352        8.2547467257
  C         6.3525634070        6.7822048980        7.0869442771
  C         5.8873753858        8.3114372496        9.1131841233
  C         7.8849471387        6.5193759625        9.0745348204
  H         7.4428630422        6.1746797365        5.2637841454
  H         5.4009465679        6.2503669956        7.0489715514
  H         6.4166291572        8.8910621812        9.8879336612
  H         5.1966897765        7.6090830459        9.6108857285
  H         5.2907457736        9.0033528142        8.4945889681
  H         7.3799871482        5.5650359759        9.2880222739
  H         8.1220517886        7.0391367808       10.0029635466
  H         9.9597046691        6.9003078323        8.5175832464
  H         9.2812034083        5.4228696717        7.7500583779
      18
 i =       1, E =      -61.6438924054
  C         7.3601937963        6.7590388153        6.1847826306
  C         8.4870924044        7.4624224012        6.8742740969
  O         7.8360954560        8.4180624576        7.6789388407
  H         9.3025671056        7.9202507585        6.2739352514
  C         9.0469594041        6.4331074299        8.1187429758
  C         6.8703324114        7.5503342945        8.2641279773
  C         6.3511347303        6.7839252217        7.0833437942
  C         5.8850333540        8.3142079365        9.1091973105
  C         7.8750450644        6.5232823309        9.0639237636
  H         7.4373043020        6.1790341277        5.2585322867
  H         5.4013918178        6.2422808061        7.0535870974
  H         6.4173525119        8.8954481709        9.8821595192
  H         5.1976282495        7.6107028306        9.6092820144
  H         5.2867441938        9.0050944512        8.4917923889
  H         7.3863230023        5.5582124485        9.2992418112
  H         8.1201433515        7.0462523694       10.0156338625
  H         9.9731617266        6.9115303835        8.5256071413
  H         9.2973171402        5.4143072168        7.7674827904
      18
 i =       2, E =      -61.6453033069
  C         7.3599342306        6.7583580866        6.1845598191
  C         8.4961736019        7.4590012698        6.8774169501
  O         7.8355553240        8.4170812026        7.6786143847
  H         9.2985838134        7.9204665513        6.2742144169
  C         9.0526547069        6.4397110680        8.1129978132
  C         6.8708170893        7.5473878260        8.2695493001
  C         6.3508593068        6.7834941556        7.0820613548
  C         5.8867192393        8.3128648200        9.1073615479
  C         7.8694095072        6.5280101793        9.0671581875
  H         7.4345375457        6.1819557925        5.2564524618
  H         5.4020539646        6.2391549454        7.0555378082
  H         6.4173586916        8.8975255444        9.8793449938
  H         5.1977572341        7.6116740486        9.6088994148
  H         5.2853256301        9.0055666222        8.4897547942
  H         7.3897227345        5.5569967043        9.3034913383
  H         8.1181505459        7.0461349796       10.0152065801
  H         9.9703208707        6.9127489728        8.5254497677
  H         9.3036839017        5.4123752246        7.7754187744
      18
 i =       3, E =      -61.6465386423
  C         7.3614434875        6.7573075119        6.1856128888
  C         8.5018636209        7.4529740151        6.8839851105
  O         7.8358701975        8.4157427615        7.6784490720
  H         9.2959150693        7.9219162592        6.2731494302
  C         9.0540980604        6.4459705118        8.1065989169
  C         6.8732519507        7.5426917477        8.2733951548
  C         6.3511976930        6.7827235994        7.0816303717
  C         5.8868950620        8.3129039828        9.1057177635
  C         7.8646774666        6.5329045828        9.0667598259
  H         7.4310077277        6.1854825019        5.2536034952
  H         5.4029451082        6.2355591484        7.0576032815
  H         6.4173284935        8.8999664159        9.8758783471
  H         5.1979631482        7.6129472923        9.6085684340
  H         5.2845429683        9.0051033187        8.4877047932
  H         7.3940496784        5.5562464402        9.3083849521
  H         8.1162366921        7.0467397038       10.0161307564
  H         9.9689894397        6.9155196371        8.5262510390
  H         9.3111327683        5.4117070325        7.7852117025
      18
 i =       4, E =      -61.6472088387
  C         7.3626715716        6.7556690762        6.1868795662
  C         8.5056847952        7.4491937590        6.8877531234
  O         7.8362838310        8.4147723263        7.6788120973
  H         9.2940399187        7.9225060933        6.2728402390
  C         9.0537660737        6.4493995706        8.1030105488
  C         6.8744002893        7.5402257624        8.2756484562
  C         6.3517879479        6.7815751829        7.0815883042
  C         5.8871000650        8.3127417801        9.1047035633
  C         7.8622660658        6.5355197842        9.0657673060
  H         7.4287057050        6.1880174478        5.2518589544
  H         5.4037402624        6.2335198969        7.0587426600
  H         6.4173053602        8.9016069060        9.8736619514
  H         5.1979916001        7.6138292373        9.6085605837
  H         5.2843315374        9.0044916664        8.4862205936
  H         7.3970806795        5.5566306683        9.3111393392
  H         8.1151552641        7.0472299893       10.0166596724
  H         9.9681796463        6.9177368163        8.5268336631
  H         9.3155678523        5.4125139520        7.7915372458
      18
 i =       5, E =      -61.6478959776
  C         7.3645325390        6.7531219283        6.1886802725
  C         8.5097241482        7.4447371342        6.8920349159
  O         7.8369315483        8.4135567019        7.6794282228
  H         9.2919330934        7.9229705837        6.2726791833
  C         9.0535738178        6.4535773981        8.0993214992
  C         6.8756129315        7.5375480274        8.2778959227
  C         6.3527184516        6.7798521294        7.0819691395
  C         5.8873368008        8.3124730968        9.1036638470
  C         7.8596633921        6.5386008141        9.0648180276
  H         7.4260381865        6.1911120434        5.2498767383
  H         5.4047353791        6.2313053901        7.0598955635
  H         6.4172697635        8.9035582746        9.8710714372
  H         5.1979598962        7.6149133752        9.6087221925
  H         5.2843075379        9.0035282455        8.4843417058
  H         7.4006533894        5.5575293691        9.3140177637
  H         8.1139766085        7.0477338693       10.0168696533
  H         9.9667052836        6.9204270005        8.5273557763
  H         9.3204333896        5.4141063477        7.7987607283
      18
 i =       6, E =      -61.6483122276
  C         7.3659760684        6.7508928271        6.1902803645
  C         8.5122593903        7.4418434206        6.8947398235
  O         7.8374530190        8.4126612552        7.6799277976
  H         9.2905494573        7.9230227486        6.2727954532
  C         9.0534056727        6.4563978600        8.0972629042
  C         6.8762898561        7.5359590228        8.2792480011
  C         6.3536623695        6.7783438476        7.0824593555
  C         5.8875059230        8.3122275433        9.1030387960
  C         7.8581580984        6.5406722978        9.0642235429
  H         7.4243106645        6.1932509698        5.2485678091
  H         5.4054144012        6.2299512373        7.0605141236
  H         6.4172468584        8.9048968159        9.8693357629
  H         5.1978770648        7.6156746854        9.6089970678
  H         5.2844812985        9.0026613829        8.4829554661
  H         7.4030225747        5.5584522397        9.3156484133
  H         8.1132954845        7.0481062571       10.0167870210
  H         9.9654374390        6.9224494937        8.5276561940
  H         9.3234109545        5.4157318823        7.8034197625
      18
 i =       7, E =      -61.6485172251
  C         7.3668468743        6.7495451911        6.1911728186
  C         8.5134954149        7.4403663799        6.8961102811
  O         7.8377362000        8.4121958414        7.6801940343
  H         9.2898639689        7.9229586799        6.2729236857
  C         9.0532848179        6.4578735425        8.0963407873
  C         6.8766257714        7.5351834292        8.2799114647
  C         6.3541779441        6.7774126896        7.0828418350
  C         5.8875884274        8.3120782946        9.1027421284
  C         7.8574624803        6.5417490180        9.0639160892
  H         7.4234482376        6.1943815974        5.2479226633
  H         5.4057889683        6.2293074976        7.0607777434
  H         6.4172377386        8.9056035146        9.8684337145
  H         5.1978173269        7.6160851277        9.6092031404
  H         5.2846318610        9.0021351640        8.4821846120
  H         7.4042234602        5.5590239005        9.3163847291
  H         8.1129930065        7.0483420132       10.0167001571
  H         9.9647161364        6.9236148211        8.5278177208
  H         9.3248556484        5.4167498589        7.8057535143
      18
 i =       8, E =      -61.6501018336
  C         7.3836060704        6.7224861525        6.2095091669
  C         8.5362555074        7.4128473263        6.9215472951
  O         7.8429824909        8.4034331667        7.6851024446
  H         9.2772674113        7.9207612419        6.2760602893
  C         9.0509883308        6.4859348985        8.0803386883
  C         6.8827488765        7.5209852180        8.2921847314
  C         6.3652707838        6.7585816746        7.0906531280
  C         5.8891665643        8.3090481470        9.0974395729
  C         7.8450653670        6.5621110224        9.0584298597
  H         7.4076926817        6.2156268498        5.2358630518
  H         5.4126551099        6.2175250777        7.0651903999
  H         6.4170883730        8.9190496437        9.8513892964
  H         5.1965373748        7.6239723066        9.6137636617
  H         5.2880081946        8.9914808511        8.4670972773
  H         7.4264836442        5.5706446624        9.3291411970
  H         8.1078271417        7.0532937555       10.0146841157
  H         9.9504936134        6.9468527521        8.5309684469
  H         9.3510870826        5.4375506610        7.8488165382
      18
 i =       9, E =      -61.6504300507
  C         7.3846690182        6.7200479421        6.2102549789
  C         8.5345350098        7.4147260938        6.9190841200
  O         7.8430392362        8.4033212909        7.6851859966
  H         9.2780007771        7.9183026138        6.2779707765
  C         9.0516238284        6.4846341234        8.0835773555
  C         6.8816598408        7.5222966859        8.2913087490
  C         6.3660895749        6.7568350253        7.0922274907
  C         5.8892284261        8.3086318415        9.0980373668
  C         7.8467331837        6.5614999908        9.0592820400
  H         7.4087096478        6.2155784254        5.2371788688
  H         5.4123678217        6.2184811255        7.0641160635
  H         6.4170933318        8.9188855329        9.8516808407
  H         5.1962237581        7.6240316688        9.6146618994
  H         5.2891934892        8.9902863661        8.4663345682
  H         7.4256464807        5.5722446121        9.3268532448
  H         8.1090777527        7.0538442571       10.0139980124
  H         9.9493692489        6.9483978983        8.5308832294
  H         9.3485022445        5.4408595140        7.8460366410
      18
 i =      10, E =      -61.6507473770
  C         7.3856215833        6.7169972163        6.2123316320
  C         8.5314971054        7.4161401824        6.9175724687
  O         7.8426722302        8.4035550543        7.6847502185
  H         9.2798961814        7.9154329002        6.2797849979
  C         9.0514077085        6.4845940174        8.0877122850
  C         6.8812245070        7.5233560558        8.2903099998
  C         6.3677023556        6.7541317073        7.0939356687
  C         5.8890754249        8.3082407634        9.0988066174
  C         7.8491868760        6.5612312103        9.0601517587
  H         7.4102719349        6.2151162294        5.2384458865
  H         5.4119488268        6.2196271893        7.0626674098
  H         6.4171512634        8.9188234538        9.8519050694
  H         5.1958298974        7.6242159910        9.6160582430
  H         5.2907268465        8.9885453253        8.4650578865
  H         7.4242509317        5.5738440708        9.3239179433
  H         8.1109292507        7.0550692137       10.0135414467
  H         9.9484884087        6.9514321217        8.5313398175
  H         9.3455884802        5.4441216872        7.8421911958
      18
 i =      11, E =      -61.6508729075
  C         7.3861749544        6.7154957221        6.2130041455
  C         8.5308128563        7.4164301611        6.9176723354
  O         7.8420751120        8.4039530525        7.6842503853
  H         9.2808243619        7.9141457196        6.2804406193
  C         9.0512077053        6.4852825469        8.0889595379
  C         6.8813830247        7.5235039347        8.2903537576
  C         6.3680000122        6.7527111113        7.0949137717
  C         5.8890689406        8.3079831485        9.0990208756
  C         7.8499451348        6.5614789976        9.0606379139
  H         7.4111250470        6.2147534107        5.2390179054
  H         5.4118243747        6.2200871031        7.0620397980
  H         6.4172072089        8.9188987028        9.8519013234
  H         5.1956818948        7.6243645956        9.6167906808
  H         5.2912862064        8.9877695344        8.4643387976
  H         7.4235441747        5.5743517418        9.3227047035
  H         8.1118136023        7.0558524281       10.0136187397
  H         9.9483235609        6.9532704358        8.5317961657
  H         9.3445557954        5.4452217568        7.8405467163
      18
 i =      12, E =      -61.6509454654
  C         7.3863969220        6.7146512873        6.2135975541
  C         8.5305601906        7.4165416951        6.9178034597
  O         7.8416637854        8.4041958498        7.6839087499
  H         9.2813433465        7.9133765940        6.2808327571
  C         9.0511937808        6.4857376463        8.0895296326
  C         6.8814576661        7.5235375483        8.2904524930
  C         6.3683807336        6.7519147966        7.0953753489
  C         5.8890784410        8.3078316481        9.0991472040
  C         7.8502755951        6.5616937923        9.0609480842
  H         7.4116740634        6.2144524120        5.2393061653
  H         5.4116589784        6.2202983632        7.0616828122
  H         6.4172368129        8.9189464511        9.8518799576
  H         5.1956090065        7.6244633849        9.6172300740
  H         5.2915947937        8.9873166736        8.4639167496
  H         7.4231350352        5.5746674049        9.3220079323
  H         8.1123342514        7.0563187573       10.0137099024
  H         9.9482039605        6.9543651372        8.5320668210
  H         9.3439611554        5.4459322027        7.8396071181
      18
 i =      13, E =      -61.6523468381
  C         7.3979439648        6.6810932442        6.2348731954
  C         8.5228235482        7.4196925722        6.9249543969
  O         7.8250176541        8.4137856315        7.6700355398
  H         9.3011949361        7.8832168778        6.2961080706
  C         9.0514611850        6.5052709013        8.1088015413
  C         6.8845359816        7.5240660938        8.2952873487
  C         6.3805337757        6.7205260244        7.1148932452
  C         5.8893525251        8.3019315905        9.1039936751
  C         7.8614379104        6.5716970052        9.0728560161
  H         7.4341096051        6.2015418112        5.2517615152
  H         5.4053445741        6.2285372036        7.0478782809
  H         6.4183930928        8.9207765137        9.8508252923
  H         5.1930709747        7.6285479679        9.6345351326
  H         5.3033276096        8.9696929429        8.4477937478
  H         7.4072358886        5.5874659918        9.2951141659
  H         8.1326565702        7.0743457816       10.0181314527
  H         9.9432875781        6.9970741018        8.5426216183
  H         9.3209900631        5.4747290702        7.8029864702
      18
 i =      14, E =      -61.6526563276
  C         7.3997004267        6.6815562640        6.2352558221
  C         8.5271861374        7.4172884828        6.9280603791
  O         7.8253193042        8.4130929578        7.6705335741
  H         9.3001563272        7.8828473565        6.2965828351
  C         9.0520819882        6.5078192713        8.1020455454
  C         6.8844795038        7.5226148792        8.2971679493
  C         6.3792066294        6.7213953790        7.1142153492
  C         5.8893252052        8.3018921583        9.1040565297
  C         7.8575293025        6.5743435694        9.0714016460
  H         7.4352836190        6.1993632395        5.2529592330
  H         5.4050333144        6.2283944292        7.0483214656
  H         6.4182350304        8.9205694662        9.8508908230
  H         5.1935156900        7.6286010031        9.6343227382
  H         5.3030291353        8.9698294690        8.4485410085
  H         7.4078917863        5.5890814407        9.2957919868
  H         8.1324586592        7.0729979890       10.0190466140
  H         9.9424513896        6.9952276156        8.5418626456
  H         9.3210034353        5.4771953666        7.8030216822
      18
 i =      15, E =      -61.6527647154
  C         7.4001730738        6.6815450048        6.2362377340
  C         8.5287016455        7.4161782474        6.9294528181
  O         7.8257737575        8.4126724746        7.6710485780
  H         9.3000266394        7.8824594882        6.2969429646
  C         9.0515793578        6.5095781926        8.0993758957
  C         6.8841867036        7.5221139113        8.2978081508
  C         6.3795986113        6.7221135829        7.1133284033
  C         5.8893707451        8.3018357044        9.1042457272
  C         7.8562461308        6.5759887338        9.0702626415
  H         7.4362284801        6.1978155697        5.2540321846
  H         5.4045467032        6.2283195247        7.0484460540
  H         6.4180981054        8.9204260839        9.8510595483
  H         5.1936696625        7.6285276954        9.6343188885
  H         5.3030188625        8.9697333246        8.4488602173
  H         7.4081608585        5.5902831450        9.2959839234
  H         8.1324413529        7.0719178002       10.0192058261
  H         9.9418866490        6.9940377672        8.5412930634
  H         9.3208190633        5.4787076161        7.8022832929
      18
 i =      16, E =      -61.6528513179
  C         7.4013962336        6.6811755969        6.2365672590
  C         8.5299057707        7.4154268234        6.9305884396
  O         7.8262993057        8.4124617266        7.6716654944
  H         9.3000942595        7.8818136247        6.2974731896
  C         9.0509177556        6.5111167822        8.0970779877
  C         6.8839409344        7.5219132156        8.2982388554
  C         6.3789445042        6.7226953052        7.1129996142
  C         5.8893706962        8.3017090057        9.1044949629
  C         7.8551037762        6.5775335826        9.0691224575
  H         7.4374130517        6.1960218352        5.2556910681
  H         5.4043812138        6.2285371650        7.0484819629
  H         6.4179417899        8.9202678775        9.8513514717
  H         5.1937746576        7.6283851609        9.6343983276
  H         5.3031190936        8.9694958852        8.4491236904
  H         7.4084265574        5.5918653971        9.2959761340
  H         8.1325278021        7.0706568334       10.0191789591
  H         9.9412465753        6.9927676578        8.5406132756
  H         9.3203591683        5.4806456213        7.8010284804
      18
 i =      17, E =      -61.6528800962
  C         7.4015523813        6.6810352030        6.2370951896
  C         8.5301719180        7.4153105979        6.9308516304
  O         7.8264697901        8.4124718711        7.6718619273
  H         9.3002361790        7.8815048578        6.2977154743
  C         9.0506144921        6.5115856653        8.0964758962
  C         6.8838141905        7.5219678875        8.2982987329
  C         6.3791117221        6.7229686942        7.1126764557
  C         5.8893707774        8.3016603245        9.1046296948
  C         7.8548065302        6.5780336442        9.0687140347
  H         7.4379762245        6.1951625878        5.2563315002
  H         5.4042321016        6.2286308859        7.0484513006
  H         6.4178690856        8.9202013192        9.8515040325
  H         5.1937904637        7.6282975522        9.6344632249
  H         5.3031872872        8.9693610040        8.4491924014
  H         7.4084807075        5.5925228037        9.2958911715
  H         8.1326088014        7.0701615524       10.0191049023
  H         9.9410119289        6.9923028498        8.5403376416
  H         9.3200857344        5.4814352852        7.8003332136
      18
 i =      18, E =      -61.6530875387
  C         7.4068062219        6.6777641563        6.2425010107
  C         8.5335715997        7.4143399566        6.9350236334
  O         7.8291130200        8.4135154782        7.6748348462
  H         9.3031942400        7.8761855927        6.3017123465
  C         9.0454421982        6.5188997463        8.0875385172
  C         6.8820876241        7.5236629930        8.2987749753
  C         6.3780101813        6.7271425337        7.1098770669
  C         5.8891850188        8.3008342248        9.1069254970
  C         7.8504045301        6.5859698492        9.0621133998
  H         7.4479888231        6.1802814777        5.2686876078
  H         5.4029102320        6.2310116540        7.0477080313
  H         6.4166230117        8.9190477536        9.8543065456
  H         5.1939953915        7.6266735421        9.6356803940
  H         5.3043213486        8.9670155566        8.4503300966
  H         7.4089543427        5.6033904572        9.2941039548
  H         8.1342040195        7.0619639113       10.0176984096
  H         9.9373726847        6.9847027921        8.5357368374
  H         9.3150657186        5.4944848861        7.7874969077
      18
 i =      19, E =      -61.6532044897
  C         7.4058918671        6.6772971169        6.2424007986
  C         8.5303122127        7.4182193137        6.9323966899
  O         7.8275861087        8.4162259250        7.6729305569
  H         9.3050666757        7.8761676848        6.3014251819
  C         9.0457241921        6.5161939926        8.0925359010
  C         6.8822984921        7.5265222286        8.2971777804
  C         6.3781282846        6.7273070694        7.1110203068
  C         5.8888449832        8.3011342312        9.1072649617
  C         7.8529489458        6.5836844968        9.0635620572
  H         7.4504078804        6.1768705034        5.2705558143
  H         5.4034705895        6.2320434144        7.0469835800
  H         6.4164746786        8.9189421743        9.8550999827
  H         5.1938156315        7.6260741877        9.6360628007
  H         5.3038978039        8.9670986849        8.4503287134
  H         7.4071349730        5.6020796422        9.2928949670
  H         8.1349547631        7.0628623778       10.0172819004
  H         9.9388458892        6.9857117671        8.5360819329
  H         9.3137262052        5.4928966303        7.7835785504
      18
 i =      20, E =      -61.6532189049
  C         7.4058213202        6.6775309683        6.2423823945
  C         8.5303693329        7.4183505704        6.9326046527
  O         7.8272983051        8.4165655916        7.6725417157
  H         9.3051786758        7.8765098505        6.3011953753
  C         9.0458590371        6.5161472683        8.0922068573
  C         6.8823985642        7.5267275886        8.2971618118
  C         6.3781708066        6.7275693794        7.1109965558
  C         5.8887377345        8.3013538648        9.1073143484
  C         7.8528388809        6.5835101563        9.0636306289
  H         7.4511081654        6.1757467147        5.2710368174
  H         5.4035525635        6.2320694885        7.0469910779
  H         6.4164513282        8.9188946429        9.8552655103
  H         5.1939286146        7.6259814138        9.6359895543
  H         5.3035343341        8.9674290430        8.4506853083
  H         7.4067977276        5.6016455182        9.2928703219
  H         8.1349511395        7.0630651973       10.0174824935
  H         9.9392916593        6.9856851110        8.5361531534
  H         9.3136336530        5.4924495013        7.7830497894
      18
 i =      21, E =      -61.6532562421
  C         7.4058450822        6.6781076762        6.2421556305
  C         8.5307314566        7.4190450102        6.9327465832
  O         7.8265674292        8.4174749782        7.6715446294
  H         9.3053316371        7.8775067877        6.3006516612
  C         9.0464606018        6.5158969247        8.0914748323
  C         6.8824793384        7.5275293385        8.2971204651
  C         6.3781226806        6.7283684457        7.1109488708
  C         5.8884846495        8.3019771429        9.1074427900
  C         7.8525943220        6.5830390218        9.0638740034
  H         7.4534674405        6.1720159792        5.2728745200
  H         5.4038891897        6.2321931332        7.0470341688
  H         6.4163603774        8.9187705095        9.8558646654
  H         5.1943013784        7.6256687314        9.6357626847
  H         5.3023344499        8.9685238801        8.4518878701
  H         7.4057510285        5.6004663839        9.2927127104
  H         8.1348904944        7.0635691349       10.0179244581
  H         9.9404894270        6.9853813609        8.5362241484
  H         9.3132297637        5.4913104378        7.7812874870
      18
 i =      22, E =      -61.6532634386
  C         7.4059206246        6.6781566697        6.2421764737
  C         8.5307518585        7.4192225274        6.9326201820
  O         7.8265693081        8.4175450348        7.6715026261
  H         9.3053153263        7.8777095704        6.3005898906
  C         9.0465638460        6.5158206954        8.0914720798
  C         6.8824238879        7.5277026453        8.2970473661
  C         6.3781727932        6.7285241107        7.1108651076
  C         5.8884537861        8.3020924675        9.1074762971
  C         7.8526061477        6.5829916052        9.0638671549
  H         7.4539891619        6.1711960096        5.2733543325
  H         5.4039632945        6.2322090556        7.0470562283
  H         6.4163306983        8.9187581613        9.8560132800
  H         5.1943858812        7.6256039021        9.6357204802
  H         5.3020921338        8.9687499312        8.4521759694
  H         7.4055940555        5.6003986731        9.2926385879
  H         8.1348459038        7.0635786148       10.0179067966
  H         9.9406253882        6.9851987918        8.5361646507
  H         9.3131042583        5.4912625317        7.7809308070
      18
 i =      23, E =      -61.6534212578
  C         7.4094503531        6.6795813559        6.2422984477
  C         8.5313107414        7.4249521825        6.9295993823
  O         7.8268315498        8.4203655268        7.6700209859
  H         9.3049066471        7.8857199074        6.2978681586
  C         9.0490467283        6.5134202271        8.0904462370
  C         6.8810628739        7.5338099554        8.2941040210
  C         6.3790465888        6.7341573918        7.1081826898
  C         5.8872246597        8.3064686648        9.1087229470
  C         7.8527220992        6.5812563355        9.0629108156
  H         7.4732758024        6.1408671083        5.2911914792
  H         5.4071537003        6.2326714787        7.0479166010
  H         6.4152843707        8.9182598765        9.8614377644
  H         5.1975484727        7.6232529953        9.6341822448
  H         5.2931662456        8.9771753687        8.4631476875
  H         7.4001683131        5.5983062287        9.2899493600
  H         8.1330315598        7.0638538427       10.0173221637
  H         9.9460804826        6.9784344968        8.5341492361
  H         9.3087046839        5.4894025077        7.7682026203
      18
 i =      24, E =      -61.6534342850
  C         7.4096037270        6.6792051210        6.2422529287
  C         8.5315436305        7.4246331849        6.9303220054
  O         7.8269383414        8.4205312526        7.6700854371
  H         9.3048386114        7.8860323553        6.2977644004
  C         9.0484297364        6.5136638999        8.0899218150
  C         6.8812720965        7.5337913403        8.2940068936
  C         6.3789912182        6.7341510655        7.1080745013
  C         5.8872596289        8.3064885311        9.1087309302
  C         7.8524455102        6.5813896434        9.0625017002
  H         7.4735881470        6.1404500349        5.2915590887
  H         5.4073932596        6.2324653092        7.0479556473