      18
 i =       0, E =      -61.6156447241
  C         7.3296826741        6.7959728306        6.1513828667
  C         8.4386311528        7.5218742566        6.7923846258
  O         7.8446442658        8.3928315232        7.6832436108
  H         9.2975476350        7.9319256959        6.2623179975
  C         9.1047327052        6.3804261837        8.2276293140
  C         6.8339269441        7.5808298627        8.2222578180
  C         6.3425833314        6.7878082325        7.0857562951
  C         5.8816318174        8.3220485063        9.0973278912
  C         7.9396099300        6.4747323874        9.1219444947
  H         7.4241303758        6.1938608982        5.2439779905
  H         5.4147237709        6.2184351153        7.0696554865
  H         6.4173473842        8.9097750309        9.8605061655
  H         5.2002807173        7.6167587390        9.6022476305
  H         5.2747045785        9.0068899921        8.4800644667
  H         7.4075918964        5.5370790309        9.3340804405
  H         8.1040003437        7.0588688097       10.0207561842
  H         9.9807045873        6.9299241252        8.5389430411
  H         9.3517004066        5.3882762852        7.8275538359
      18
 i =       1, E =      -61.6203872245
  C         7.3371578801        6.7962453680        6.1532091954
  C         8.4421523067        7.5071983747        6.8059666118
  O         7.8381952936        8.4020300862        7.6811389925
  H         9.2980689527        7.9405441263        6.2539788039
  C         9.0899242420        6.3776197194        8.2128535859
  C         6.8492210162        7.5659103582        8.2329506959
  C         6.3410601286        6.7905789076        7.0814105691
  C         5.8790952216        8.3253144832        9.0934270352
  C         7.9282668386        6.4773663389        9.1060079751
  H         7.4174958333        6.1985418410        5.2384217141
  H         5.4139321545        6.2102043142        7.0746090168
  H         6.4181599494        8.9139310463        9.8551787703
  H         5.2011784774        7.6183988585        9.6010308407
  H         5.2702614875        9.0089836977        8.4780885497
  H         7.4134554640        5.5303234847        9.3451288560
  H         8.1020247291        7.0680308199       10.0362832420
  H         9.9968570647        6.9443196386        8.5467669150
  H         9.3673147294        5.3798136861        7.8442321380
      18
 i =       2, E =      -61.6223141330
  C         7.3364508342        6.7932771208        6.1538562292
  C         8.4517739316        7.5064152885        6.8092121776
  O         7.8375646151        8.4015236155        7.6798327137
  H         9.2935297867        7.9420752786        6.2529171821
  C         9.0993931922        6.3856952055        8.2084431878
  C         6.8503124166        7.5622870148        8.2386360269
  C         6.3412703922        6.7902819136        7.0790745533
  C         5.8806114532        8.3240952687        9.0915831956
  C         7.9206003681        6.4840620736        9.1116004831
  H         7.4141657972        6.2021189444        5.2360606280
  H         5.4151316665        6.2069209585        7.0769504594
  H         6.4181942656        8.9162592794        9.8520934133
  H         5.2014213015        7.6196477337        9.6006715770
  H         5.2683035763        9.0097429707        8.4761398671
  H         7.4168867829        5.5282214023        9.3501901516
  H         8.0995682297        7.0668363054       10.0345915629
  H         9.9927007093        6.9445389265        8.5464940647
  H         9.3751052784        5.3753654965        7.8530524496
      18
 i =       3, E =      -61.6238986832
  C         7.3387662330        6.7906713819        6.1557669329
  C         8.4563181910        7.5020021622        6.8156628482
  O         7.8373973839        8.4014232644        7.6788198431
  H         9.2909609926        7.9459350777        6.2495286950
  C         9.1003842352        6.3902436397        8.2043669571
  C         6.8539109830        7.5566850154        8.2426741010
  C         6.3415024537        6.7894304124        7.0780235340
  C         5.8804528259        8.3247041394        9.0895571896
  C         7.9158565449        6.4892258154        9.1101537623
  H         7.4098106952        6.2062845695        5.2323758823
  H         5.4168458437        6.2029972774        7.0795939416
  H         6.4182144376        8.9191510183        9.8481096825
  H         5.2017527475        7.6212192003        9.6004100255
  H         5.2667546763        9.0095938574        8.4742449460
  H         7.4216363143        5.5265167263        9.3564538737
  H         8.0970412644        7.0677157330       10.0362290010
  H         9.9927373151        6.9481710373        8.5482369031
  H         9.3846632105        5.3726905188        7.8652280480
      18
 i =       4, E =      -61.6248056004
  C         7.3403314149        6.7881393481        6.1572231099
  C         8.4600820340        7.4991750971        6.8189209818
  O         7.8372322998        8.4012525998        7.6787865042
  H         9.2887897370        7.9481909812        6.2476829421
  C         9.1005707382        6.3927132609        8.2021467752
  C         6.8556857693        7.5538171100        8.2451493910
  C         6.3420706411        6.7882202158        7.0776885282
  C         5.8806123410        8.3247281074        9.0882268725
  C         7.9131059825        6.4917680607        9.1091681674
  H         7.4069921643        6.2092667424        5.2300398184
  H         5.4181440022        6.2006277015        7.0811631994
  H         6.4182248935        8.9211822308        9.8454711352
  H         5.2019282186        7.6223468716        9.6004542979
  H         5.2658430347        9.0092960504        8.4728102980
  H         7.4250616972        5.5263415524        9.3601832402
  H         8.0953699670        7.0684484902       10.0371106465
  H         9.9926492605        6.9508881628        8.5494001200
  H         9.3906666158        5.3719985971        7.8735651326
      18
 i =       5, E =      -61.6257993503
  C         7.3423795676        6.7847504263        6.1593189505
  C         8.4640375065        7.4957329661        6.8228181217
  O         7.8372489562        8.4007812169        7.6787654865
  H         9.2862983410        7.9508717063        6.2455030173
  C         9.1012867785        6.3959413200        8.1998540833
  C         6.8575901905        7.5506300459        8.2475484375
  C         6.3433482352        6.7865350768        7.0776725232
  C         5.8807462317        8.3247755434        9.0867913043
  C         7.9100016128        6.4948293514        9.1085071548
  H         7.4037681293        6.2127900949        5.2272282226
  H         5.4196089031        6.1978930100        7.0828654553
  H         6.4182206870        8.9236283237        9.8423167510
  H         5.2021307998        7.6237314685        9.6006948601
  H         5.2648996058        9.0087147594        8.4710733077
  H         7.4290425068        5.5264217767        9.3643064070
  H         8.0933657615        7.0692746710       10.0377203746
  H         9.9920307737        6.9540978438        8.5506498391
  H         9.3975277617        5.3716205268        7.8834178641
      18
 i =       6, E =      -61.6264374828
  C         7.3441921185        6.7820547764        6.1607631372
  C         8.4666231656        7.4933250182        6.8254309197
  O         7.8373618514        8.4003472479        7.6787626158
  H         9.2845781306        7.9526531272        6.2440812399
  C         9.1014475129        6.3981721515        8.1986239245
  C         6.8587858592        7.5487187132        8.2490432777
  C         6.3441748388        6.7849029769        7.0780591005
  C         5.8808077666        8.3247946362        9.0858561605
  C         7.9083108374        6.4968680184        9.1079253970
  H         7.4017064092        6.2151774603        5.2253864364
  H         5.4207178372        6.1962322087        7.0838850916
  H         6.4182240137        8.9253207413        9.8401579555
  H         5.2022651345        7.6247045378        9.6010389929
  H         5.2643320970        9.0081611770        8.4698816094
  H         7.4316065856        5.5266399150        9.3668704630
  H         8.0920099426        7.0699859588       10.0380506120
  H         9.9915413838        6.9565214378        8.5515109049
  H         9.4019778799        5.3717471419        7.8900429150
      18
 i =       7, E =      -61.6267645466
  C         7.3450851280        6.7805138121        6.1617109895
  C         8.4680149146        7.4920593050        6.8267512583
  O         7.8374153543        8.4000942807        7.6787443275
  H         9.2836429936        7.9535515400        6.2433840275
  C         9.1016047023        6.3993674080        8.1980331091
  C         6.8593501042        7.5477857981        8.2497621338
  C         6.3448797053        6.7839592476        7.0782549064
  C         5.8808451374        8.3247907546        9.0854022554
  C         7.9074468420        6.4978952047        9.1077221591
  H         7.4007171819        6.2163748610        5.2244302543
  H         5.4212375588        6.1953827039        7.0843688190
  H         6.4182295561        8.9262100096        9.8390312761
  H         5.2023410632        7.6252260081        9.6012858545
  H         5.2640407463        9.0078382445        8.4692624655
  H         7.4328975936        5.5268482534        9.3680962032
  H         8.0913051502        7.0704023607       10.0381681249
  H         9.9912063791        6.9578472081        8.5519407961
  H         9.4041943732        5.3719632672        7.8934508481
      18
 i =       8, E =      -61.6317760584
  C         7.3639164166        6.7498141060        6.1790730610
  C         8.4940444946        7.4677345770        6.8519794804
  O         7.8385099944        8.3952401968        7.6781150120
  H         9.2659200231        7.9704479361        6.2303568474
  C         9.1042164215        6.4224269523        8.1874946414
  C         6.8699035762        7.5307231311        8.2628461394
  C         6.3576491706        6.7644594083        7.0836592609
  C         5.8814107609        8.3247068471        9.0770219305
  C         7.8919142244        6.5173165859        9.1040200111
  H         7.3829903493        6.2385686990        5.2071066749
  H         5.4312845062        6.1800777655        7.0929338726
  H         6.4184492424        8.9429924485        9.8178137691
  H         5.2038424820        7.6351790689        9.6066542174
  H         5.2585112512        9.0015017879        8.4578189988
  H         7.4564959675        5.5312781759        9.3901926526
  H         8.0780553236        7.0788629303       10.0402117692
  H         9.9845622474        6.9837166001        8.5600059448
  H         9.4450281834        5.3772362619        7.9569906781
      18
 i =       9, E =      -61.6322145384
  C         7.3652976828        6.7475480437        6.1794146781
  C         8.4950675491        7.4667635645        6.8526584030
  O         7.8385785375        8.3949222177        7.6778166503
  H         9.2653562285        7.9693983094        6.2315564085
  C         9.1037966226        6.4233005038        8.1866485625
  C         6.8694826468        7.5313593920        8.2626571857
  C         6.3587775415        6.7625125579        7.0849547931
  C         5.8814890604        8.3244113555        9.0774865126
  C         7.8922027328        6.5175199647        9.1041819465
  H         7.3846314749        6.2378520059        5.2086447663
  H         5.4309426436        6.1809962286        7.0919782731
  H         6.4185907846        8.9426981834        9.8180986953
  H         5.2038594018        7.6353045384        9.6076013037
  H         5.2587608251        9.0011426543        8.4582153658
  H         7.4554264965        5.5327375335        9.3881967998
  H         8.0785199405        7.0793731507       10.0399003218
  H         9.9837979705        6.9844947687        8.5598180793
  H         9.4426084697        5.3803199916        7.9551575152
      18
 i =      10, E =      -61.6328883823
  C         7.3670695083        6.7445937040        6.1817018694
  C         8.4958753527        7.4648121589        6.8541574052
  O         7.8384832939        8.3946244998        7.6771099679
  H         9.2649040330        7.9682075160        6.2330194742
  C         9.1027937498        6.4256510346        8.1856366785
  C         6.8691620292        7.5321318548        8.2622162627
  C         6.3611696893        6.7595869894        7.0860383598
  C         5.8814184675        8.3241762852        9.0782366168
  C         7.8929036177        6.5181785319        9.1042190065
  H         7.3877129121        6.2357542550        5.2105241340
  H         5.4301849198        6.1824555815        7.0904121114
  H         6.4189800075        8.9419784059        9.8188033839
  H         5.2038631683        7.6354556594        9.6090345452
  H         5.2589601168        9.0010494631        8.4593520679
  H         7.4534390749        5.5344732448        9.3850825521
  H         8.0793707316        7.0800674261       10.0396189689
  H         9.9827857962        6.9855051700        8.5594477441
  H         9.4388824133        5.3841234165        7.9514825284
      18
 i =      11, E =      -61.6332441972
  C         7.3684926196        6.7429007871        6.1823126429
  C         8.4963726402        7.4638835379        6.8551908459
  O         7.8382266637        8.3947328577        7.6766717142
  H         9.2647094508        7.9677483591        6.2336319263
  C         9.1022182904        6.4269700174        8.1849575220
  C         6.8690718070        7.5325062631        8.2620326684
  C         6.3615715003        6.7581251075        7.0869002996
  C         5.8813556113        8.3241177325        9.0786040910
  C         7.8931398687        6.5186072512        9.1042748996
  H         7.3897433222        6.2341992032        5.2118214321
  H         5.4298820371        6.1833669251        7.0894994569
  H         6.4193197656        8.9413593392        9.8193932598
  H         5.2038440152        7.6354962476        9.6097019839
  H         5.2588693707        9.0014695300        8.4603898532
  H         7.4522952357        5.5351278301        9.3834310740
  H         8.0798880870        7.0803007859       10.0396353224
  H         9.9825043873        6.9858880358        8.5592072997
  H         9.4368594229        5.3857133084        7.9490098107
      18
 i =      12, E =      -61.6334553962
  C         7.3690423495        6.7419501592        6.1830680082
  C         8.4967241014        7.4633732575        6.8557951370
  O         7.8380166345        8.3948210868        7.6763902783
  H         9.2645835344        7.9675058986        6.2339902274
  C         9.1018954934        6.4277095077        8.1844989028
  C         6.8689483232        7.5327471797        8.2619417998
  C         6.3621991356        6.7573967498        7.0870943353
  C         5.8813211902        8.3241121688        9.0788462950
  C         7.8932413864        6.5188365245        9.1043094981
  H         7.3910974667        6.2330596011        5.2125527804
  H         5.4295707503        6.1838453386        7.0889465757
  H         6.4195541315        8.9409150793        9.8198035052
  H         5.2038348422        7.6355117806        9.6100652075
  H         5.2587661693        9.0018536929        8.4611447545
  H         7.4516077669        5.5354874882        9.3824388649
  H         8.0802025833        7.0803997366       10.0396854903
  H         9.9823887189        6.9860515288        8.5590356745
  H         9.4356112704        5.3866304149        7.9473929359
      18
 i =      13, E =      -61.6403828782
  C         7.3956224696        6.7036285785        6.2068010309
  C         8.5101168422        7.4441714861        6.8807890464
  O         7.8293749905        8.3993771344        7.6655499907
  H         9.2597253528        7.9588865137        6.2474223728
  C         9.0894466820        6.4562334888        8.1652590546
  C         6.8641284057        7.5426772434        8.2580588933
  C         6.3793113275        6.7292838378        7.0977612279
  C         5.8794778014        8.3245903798        9.0885582206
  C         7.8963544158        6.5276706007        9.1054568716
  H         7.4469295509        6.1855446957        5.2445095736
  H         5.4189018626        6.2035846179        7.0667754997
  H         6.4295456858        8.9218894146        9.8372263817
  H         5.2035615647        7.6359337239        9.6235031928
  H         5.2537536416        9.0197660095        8.4939618714
  H         7.4245881958        5.5487220456        9.3435576344
  H         8.0924577949        7.0831887971       10.0422605315
  H         9.9788598242        6.9907343250        8.5515605965
  H         9.3859387676        5.4216874494        7.8808801983
      18
 i =      14, E =      -61.6405242245
  C         7.3953518044        6.7046305275        6.2065599827
  C         8.5102086653        7.4462794572        6.8815804708
  O         7.8289604406        8.4004933560        7.6662800377
  H         9.2597710652        7.9600392757        6.2468323845
  C         9.0899037621        6.4546339383        8.1627890190
  C         6.8638110265        7.5424138700        8.2588173353
  C         6.3763640454        6.7327230687        7.0953219778
  C         5.8792105531        8.3257701718        9.0890008096
  C         7.8935386421        6.5276813903        9.1039286755
  H         7.4505325134        6.1804075131        5.2468213118
  H         5.4197179057        6.2031566138        7.0667543356
  H         6.4305501946        8.9196427048        9.8390753295
  H         5.2036744952        7.6354775434        9.6217109912
  H         5.2525028046        9.0240330344        8.4985328739
  H         7.4257071530        5.5476950280        9.3446044886
  H         8.0919558542        7.0808951300       10.0429345063
  H         9.9803622565        6.9871758868        8.5502135125
  H         9.3858047866        5.4201449987        7.8775220112
      18
 i =      15, E =      -61.6405771639
  C         7.3950429878        6.7052537263        6.2063979557
  C         8.5101716488        7.4473921427        6.8818433581
  O         7.8288059758        8.4011496308        7.6670192978
  H         9.2598347483        7.9607247668        6.2465924569
  C         9.0895184158        6.4540420209        8.1614522305
  C         6.8632448040        7.5425121864        8.2589777945
  C         6.3754808029        6.7354363020        7.0936476167
  C         5.8791407516        8.3264839862        9.0893255017
  C         7.8922803855        6.5278053425        9.1028066428
  H         7.4528652887        6.1771275883        5.2487139504
  H         5.4199147964        6.2023731955        7.0668177658
  H         6.4311806548        8.9183944121        9.8402188289
  H         5.2037900076        7.6351539016        9.6206263470
  H         5.2518050759        9.0265620321        8.5014110265
  H         7.4264265849        5.5470106277        9.3453763016
  H         8.0913033201        7.0793537906       10.0428780968
  H         9.9811712765        6.9848366640        8.5492365234
  H         9.3858624583        5.4191329627        7.8754994797
      18
 i =      16, E =      -61.6406194937
  C         7.3952077333        6.7061250762        6.2061199084
  C         8.5099936223        7.4484998424        6.8820730628
  O         7.8287485530        8.4018824262        7.6678602636
  H         9.2599783458        7.9614326185        6.2464357580
  C         9.0890145789        6.4534351458        8.1599410225
  C         6.8626521304        7.5429121262        8.2589830274
  C         6.3738652467        6.7382190726        7.0919633991
  C         5.8790543125        8.3271754591        9.0897335226
  C         7.8908866290        6.5278482000        9.1015301212
  H         7.4554365859        6.1734064913        5.2509599316
  H         5.4205412663        6.2014563152        7.0669732320
  H         6.4318972639        8.9172091189        9.8414346796
  H         5.2039736862        7.6347881712        9.6195066477
  H         5.2510755777        9.0291902565        8.5044845693
  H         7.4272739290        5.5463387017        9.3462514963
  H         8.0903610610        7.0777291710       10.0425417347
  H         9.9818592559        6.9822756657        8.5480570170
  H         9.3859351450        5.4182346769        7.8734454733
      18
 i =      17, E =      -61.6406359691
  C         7.3951774509        6.7064605061        6.2061160444
  C         8.5099734899        7.4489252692        6.8821404573
  O         7.8287540179        8.4021631218        7.6681611947
  H         9.2600537746        7.9616549717        6.2464537186
  C         9.0887584592        6.4532335588        8.1593565421
  C         6.8623734196        7.5431437865        8.2588991944
  C         6.3734437584        6.7393158527        7.0912517789
  C         5.8790443569        8.3274501409        9.0899125948
  C         7.8903489527        6.5278328950        9.1009901565
  H         7.4564366397        6.1719494031        5.2519050278
  H         5.4208122142        6.2009834002        7.0670671780
  H         6.4321689332        8.9168515551        9.8418581939
  H         5.2040624486        7.6346251130        9.6191418357
  H         5.2508184509        9.0300915607        8.5056003814
  H         7.4276058895        5.5461144062        9.3465856945
  H         8.0899034757        7.0771765708       10.0423040648
  H         9.9820288343        6.9813470767        8.5475665382
  H         9.3859611806        5.4179888270        7.8727407205
      18
 i =      18, E =      -61.6407013511
  C         7.3957645351        6.7119582982        6.2055428683
  C         8.5094674996        7.4556633686        6.8834610170
  O         7.8290112902        8.4070161733        7.6728637138
  H         9.2617054885        7.9651439945        6.2471109570
  C         9.0841709821        6.4503072998        8.1495733969
  C         6.8577468305        7.5474276577        8.2569980051
  C         6.3655381640        6.7570885289        7.0801632319
  C         5.8788472716        8.3319502331        9.0930025212
  C         7.8813093019        6.5276875932        9.0917550368
  H         7.4731455119        6.1475328586        5.2683134888
  H         5.4262127870        6.1927314102        7.0688146057
  H         6.4367200122        8.9116067484        9.8485825402
  H         5.2057719979        7.6318595283        9.6135553384
  H         5.2466109577        9.0443468037        8.5236616763
  H         7.4329970701        5.5424958571        9.3520098990
  H         8.0817431642        7.0685391302       10.0376711406
  H         9.9842045392        6.9664621554        8.5392550824
  H         9.3862987735        5.4144670382        7.8614385772
      18
 i =      19, E =      -61.6412634548
  C         7.3974248314        6.7107062912        6.2056896686
  C         8.5105945447        7.4532652845        6.8848851677
  O         7.8292665813        8.4072290518        7.6711728164
  H         9.2628680116        7.9635720797        6.2490575278
  C         9.0826395423        6.4532376948        8.1485413617
  C         6.8582684122        7.5482746499        8.2563471791
  C         6.3660059904        6.7539894817        7.0820318878
  C         5.8790192945        8.3312901651        9.0933477121
  C         7.8805732851        6.5288089119        9.0908765549
  H         7.4726716302        6.1482889008        5.2700573708
  H         5.4284176126        6.1917722174        7.0690818725
  H         6.4365414069        8.9143232041        9.8471041996
  H         5.2064123298        7.6318209287        9.6159573690
  H         5.2473914815        9.0405435576        8.5206066930
  H         7.4320285966        5.5438226203        9.3504635450
  H         8.0806756520        7.0711101810       10.0354539632
  H         9.9814068519        6.9695440450        8.5393193232
  H         9.3851673807        5.4174720661        7.8631066469
      18
 i =      20, E =      -61.6413616243
  C         7.3968827561        6.7105615415        6.2070004930
  C         8.5109388819        7.4530807682        6.8848997075
  O         7.8290421043        8.4073413097        7.6707878915
  H         9.2631141703        7.9632257631        6.2495159325
  C         9.0824132349        6.4536613489        8.1484598500
  C         6.8580729620        7.5483420748        8.2562304556
  C         6.3676685296        6.7538122217        7.0817589240
  C         5.8791129426        8.3312634745        9.0933980013
  C         7.8804601126        6.5291148843        9.0907723419
  H         7.4730285408        6.1477334967        5.2700338712
  H         5.4282206334        6.1912738659        7.0690569149
  H         6.4365594450        8.9146993477        9.8468171597
  H         5.2066036446        7.6318313249        9.6164639574
  H         5.2473081473        9.0400727243        8.5202342134
  H         7.4316793996        5.5440813677        9.3499713030
  H         8.0806174765        7.0715958316       10.0352253629
  H         9.9809837096        6.9702366405        8.5393865160
  H         9.3847234659        5.4180679099        7.8629913306
      18
 i =      21, E =      -61.6416293847
  C         7.3989946241        6.7090013826        6.2066562184
  C         8.5113836923        7.4525464538        6.8856276670
  O         7.8285325492        8.4079403375        7.6696794920
  H         9.2641259209        7.9622983029        6.2507244322
  C         9.0817974257        6.4552142337        8.1481687337
  C         6.8580248758        7.5488406826        8.2558193915
  C         6.3674770127        6.7521659070        7.0836414279
  C         5.8790611962        8.3311712903        9.0934373245
  C         7.8800519313        6.5300806902        9.0905575766
  H         7.4742589272        6.1463534702        5.2715130549
  H         5.4291736187        6.1905936529        7.0688651709
  H         6.4367503942        8.9157938982        9.8459590515
  H         5.2073111020        7.6319507344        9.6180396302
  H         5.2469292730        9.0387515303        8.5193643738
  H         7.4305014686        5.5449374159        9.3483065286
  H         8.0804802481        7.0730341693       10.0345490862
  H         9.9796550000        6.9723208381        8.5395757853
  H         9.3832002975        5.4198948061        7.8622906636
      18
 i =      22, E =      -61.6416789193
  C         7.3983188453        6.7089729486        6.2078977568
  C         8.5114835035        7.4525275426        6.8856389112
  O         7.8283656902        8.4080178719        7.6694593078
  H         9.2643333813        7.9621801052        6.2509679659
  C         9.0816486841        6.4555037995        8.1481608700
  C         6.8578685461        7.5490243854        8.2557735477
  C         6.3687835338        6.7520232293        7.0829415929
  C         5.8790349952        8.3312379001        9.0934694927
  C         7.8800545490        6.5301967934        9.0905368591
  H         7.4747965651        6.1456141243        5.2715977537
  H         5.4290293009        6.1902925621        7.0688282988
  H         6.4368296928        8.9158828985        9.8458308003
  H         5.2074729574        7.6319865940        9.6182988459
  H         5.2467447246        9.0386994207        8.5194336688
  H         7.4302415093        5.5451161595        9.3479460265
  H         8.0804934023        7.0732202153       10.0345069979
  H         9.9794898172        6.9726192522        8.5395954111
  H         9.3828364740        5.4202237206        7.8619087467
      18
 i =      23, E =      -61.6427389960
  C         7.4095972843        6.6975532039        6.2091350579
  C         8.5129830493        7.4530462543        6.8902258036
  O         7.8237355150        8.4134189629        7.6632271398
  H         9.2716109822        7.9582269625        6.2587504222
  C         9.0772532942        6.4654094248        8.1463324134
  C         6.8555493249        7.5554189194        8.2518081179
  C         6.3688240348        6.7419954856        7.0877221769
  C         5.8769200343        8.3335928030        9.0938562074
  C         7.8788474294        6.5350156005        9.0902354700
  H         7.4936838062        6.1244210963        5.2882599658
  H         5.4353462148        6.1858099398        7.0664519955
  H         6.4403002286        8.9184954549        9.8418269109
  H         5.2133286126        7.6333319791        9.6273000532
  H         5.2394889046        9.0381916870        8.5236726064
  H         7.4209171115        5.5512215408        9.3349586156
  H         8.0810709650        7.0789381706       10.0332177543
  H         9.9739378546        6.9822786510        8.5399892426
  H         9.3692683778        5.4324331767        7.8470343664
      18
 i =      24, E =      -61.6429239064
  C         7.4060006061        6.6991099144        6.2142073220
  C         8.5131749236        7.4532028820        6.8898104889
  O         7.8234729269        8.4132900417        7.6632612594
  H         9.2713980353        7.9585283600        6.2589036851
  C         9.0772287957        6.4651536721        8.1458398258
  C         6.8545751972        7.5552994296        8.2515548969
  C         6.3743998482        6.7440611597        7.0844383186
  C         5.8771220659        8.3338835344        9.0940384580
  C         7.8787231341        6.5350580182        9.0899309721
  H         7.4951942772        6.1220282191        5.2875933474
  H         5.4334878944        6.1847179073        7.0663928666