      18
 i =       0, E =      -61.5898001346
  C         7.2791156621        6.8692794762        6.0845437768
  C         8.3385962674        7.6304405823        6.6444424730
  O         7.8370986615        8.3653371718        7.6748678904
  H         9.2759657769        7.9919101886        6.2123541962
  C         9.2194718258        6.2524827159        8.4378145758
  C         6.7606013039        7.6428731505        8.1289732810
  C         6.3165648049        6.8048473898        7.0773122829
  C         5.8634014205        8.3527659937        9.0673488028
  C         8.0860960226        6.3481527318        9.2494893288
  H         7.4002793502        6.2184959840        5.2127940975
  H         5.4352340905        6.1616429186        7.1045216590
  H         6.4289293800        8.9128873456        9.8185463916
  H         5.1918704231        7.6384756281        9.5677605119
  H         5.2453260445        9.0544167443        8.4950986151
  H         7.4739998495        5.4622209176        9.4319243577
  H         8.0926187987        7.0722199455       10.0773969121
  H        10.0414474485        6.9647637489        8.5880363948
  H         9.4896663384        5.3085081992        7.9689914052
      18
 i =       1, E =      -61.5918979810
  C         7.3105558051        6.8537546635        6.0926603808
  C         8.3341397326        7.6348101648        6.6399832122
  O         7.8380843370        8.3588780229        7.6773477975
  H         9.2739730501        7.9913770994        6.2117722463
  C         9.2086699377        6.2589520294        8.4447469354
  C         6.7560719874        7.6455273248        8.1251496453
  C         6.3135607828        6.8063505036        7.0818971573
  C         5.8645406109        8.3482786314        9.0699454011
  C         8.0946671770        6.3499872281        9.2426228564
  H         7.3957378356        6.2215845724        5.2112952769
  H         5.4335221701        6.1630422152        7.1051606853
  H         6.4308639089        8.9178186050        9.8229695569
  H         5.1927791899        7.6372032375        9.5709838578
  H         5.2406166302        9.0567531027        8.4911546392
  H         7.4688465403        5.4614445247        9.4294304911
  H         8.0883352239        7.0760828131       10.0734259088
  H        10.0387777562        6.9678432238        8.5842200624
  H         9.4888245137        5.3053587251        7.9632361560
      18
 i =       2, E =      -61.5929298744
  C         7.3129444404        6.8444289642        6.1024844386
  C         8.3369962156        7.6394171119        6.6384513771
  O         7.8381611960        8.3571992630        7.6783687844
  H         9.2731995385        7.9914406176        6.2116128476
  C         9.2158921865        6.2548067571        8.4405876437
  C         6.7524492412        7.6473011350        8.1216097283
  C         6.3196022186        6.8066889737        7.0781897043
  C         5.8639028365        8.3513233303        9.0709836847
  C         8.0889268119        6.3476660473        9.2491584470
  H         7.3951262684        6.2216360325        5.2089295129
  H         5.4322659302        6.1636552129        7.1053133818
  H         6.4307637995        8.9187919608        9.8236599898
  H         5.1929432806        7.6360946816        9.5729348513
  H         5.2402898965        9.0555516934        8.4918146343
  H         7.4684956085        5.4642699040        9.4269393518
  H         8.0861254506        7.0775805839       10.0700836028
  H        10.0363037460        6.9692939532        8.5820010565
  H         9.4862410764        5.3092640968        7.9626190214
      18
 i =       3, E =      -61.5937073767
  C         7.3230278594        6.8336321172        6.1069444077
  C         8.3363129926        7.6411676126        6.6390944204
  O         7.8386898925        8.3564918214        7.6792035780
  H         9.2745157967        7.9925044651        6.2104224784
  C         9.2108292108        6.2552257844        8.4446641347
  C         6.7503832689        7.6500593966        8.1196527631
  C         6.3182730997        6.8035927599        7.0785140785
  C         5.8628686099        8.3522220763        9.0718855789
  C         8.0940183904        6.3468262540        9.2458895321
  H         7.3940564124        6.2227950407        5.2081294510
  H         5.4332837641        6.1661405066        7.1051104987
  H         6.4308548147        8.9205861370        9.8245105893
  H         5.1940426277        7.6356375757        9.5750720250
  H         5.2389531916        9.0546908001        8.4919862230
  H         7.4653368282        5.4646274268        9.4248448358
  H         8.0829941688        7.0808283900       10.0676362584
  H        10.0345160360        6.9719576720        8.5791594219
  H         9.4846951846        5.3096332888        7.9594910908
      18
 i =       4, E =      -61.5941971099
  C         7.3273739003        6.8274369255        6.1124905891
  C         8.3373009475        7.6421395039        6.6383920674
  O         7.8383760478        8.3561854781        7.6796188745
  H         9.2746757165        7.9931250236        6.2100228810
  C         9.2140637756        6.2541017806        8.4436952131
  C         6.7478512997        7.6513555090        8.1170004283
  C         6.3215806917        6.8035623337        7.0785791774
  C         5.8626197732        8.3528032380        9.0726420466
  C         8.0918909222        6.3458349792        9.2492076049
  H         7.3939797608        6.2226594101        5.2067303947
  H         5.4323544487        6.1667185129        7.1049368360
  H         6.4307446592        8.9216301002        9.8248703853
  H         5.1948101729        7.6353939818        9.5765460597
  H         5.2377558328        9.0543920217        8.4923379188
  H         7.4640189577        5.4660682143        9.4229145620
  H         8.0809117891        7.0822856964       10.0648624965
  H        10.0322531739        6.9731386106        8.5770033841
  H         9.4829669210        5.3112728550        7.9578633946
      18
 i =       5, E =      -61.5946934442
  C         7.3340296308        6.8196863697        6.1163120958
  C         8.3381860251        7.6427874807        6.6387903715
  O         7.8381484297        8.3560848955        7.6795988794
  H         9.2752392174        7.9941454640        6.2093170187
  C         9.2117374197        6.2538926110        8.4461954611
  C         6.7459363845        7.6539200347        8.1153006196
  C         6.3220466812        6.8012282142        7.0792962852
  C         5.8620761088        8.3532789860        9.0730717282
  C         8.0946176583        6.3448971084        9.2483437267
  H         7.3939916263        6.2228560573        5.2061544138
  H         5.4325504019        6.1683714179        7.1045769924
  H         6.4306737098        8.9228801471        9.8251681529
  H         5.1958427131        7.6352019755        9.5783823246
  H         5.2361875952        9.0540312227        8.4930198448
  H         7.4614153597        5.4666550630        9.4209373986
  H         8.0782225411        7.0848245908       10.0625256963
  H        10.0305247751        6.9753066020        8.5744072248
  H         9.4813684700        5.3119672498        7.9550762455
      18
 i =       6, E =      -61.5950218248
  C         7.3378442961        6.8149101259        6.1200090670
  C         8.3388053028        7.6428246516        6.6387984771
  O         7.8378478754        8.3561385184        7.6794311492
  H         9.2755467988        7.9949885305        6.2088847474
  C         9.2131694300        6.2531843055        8.4462057870
  C         6.7442493206        7.6553067834        8.1132095597
  C         6.3241534117        6.8004186398        7.0798246985
  C         5.8617187111        8.3537934069        9.0735281048
  C         8.0939769003        6.3440248573        9.2502591835
  H         7.3943918108        6.2225236238        5.2055528551
  H         5.4320273008        6.1690894183        7.1042872041
  H         6.4305657926        8.9236426703        9.8252506208
  H         5.1966041018        7.6350966154        9.5796736559
  H         5.2349169741        9.0539349569        8.4937454302
  H         7.4599252771        5.4675958571        9.4193143456
  H         8.0763484267        7.0862755792       10.0604368790
  H        10.0288189360        6.9765006564        8.5724591031
  H         9.4799069686        5.3130846397        7.9532777779
      18
 i =       7, E =      -61.5951894487
  C         7.3400197732        6.8122555575        6.1214289208
  C         8.3393273153        7.6428178529        6.6389773943
  O         7.8376933765        8.3562136876        7.6792446528
  H         9.2756634238        7.9954702578        6.2086519633
  C         9.2126659179        6.2530206339        8.4469492752
  C         6.7435027489        7.6563020748        8.1124488763
  C         6.3246544163        6.7995221801        7.0801632690
  C         5.8615071208        8.3539997330        9.0736375568
  C         8.0947259168        6.3436010804        9.2503163035
  H         7.3946969268        6.2223671626        5.2054997482
  H         5.4319917979        6.1696512555        7.1040980841
  H         6.4305360603        8.9240414079        9.8252707963
  H         5.1970343365        7.6350594550        9.5803774609
  H         5.2341724896        9.0539282567        8.4942266421
  H         7.4589105276        5.4678671239        9.4185089887
  H         8.0753062862        7.0872004141       10.0595318379
  H        10.0281142530        6.9772861653        8.5714067143
  H         9.4792022119        5.3134442774        7.9521230078
      18
 i =       8, E =      -61.5974621357
  C         7.3804396076        6.7634720515        6.1508117731
  C         8.3479367822        7.6414375723        6.6416879321
  O         7.8344820622        8.3577803058        7.6751106775
  H         9.2778978899        8.0055353715        6.2040307279
  C         9.2106375505        6.2482287636        8.4574359245
  C         6.7281268698        7.6747954824        8.0947678233
  C         6.3380465704        6.7841750517        7.0870025272
  C         5.8572684018        8.3586679142        9.0761486125
  C         8.1035907225        6.3343730253        9.2580756424
  H         7.4021492885        6.2175847822        5.2044995227
  H         5.4298779884        6.1795030332        7.1002662751
  H         6.4300308118        8.9310752259        9.8253998774
  H         5.2053671233        7.6344761560        9.5937115222
  H         5.2191349079        9.0548424477        8.5048246388
  H         7.4402501240        5.4741668352        9.4025057575
  H         8.0554426127        7.1039311700       10.0413226784
  H        10.0135855624        6.9913207797        8.5508813936
  H         9.4647379427        5.3218423938        7.9299897600
      18
 i =       9, E =      -61.5976813946
  C         7.3801962893        6.7639945363        6.1507421805
  C         8.3476703875        7.6408244485        6.6409770075
  O         7.8343084274        8.3578868127        7.6742656790
  H         9.2774669109        8.0064976689        6.2039256143
  C         9.2130977957        6.2470065040        8.4575537230
  C         6.7268552357        7.6759115260        8.0926349157
  C         6.3394172701        6.7838663989        7.0875044919
  C         5.8569165438        8.3592007186        9.0759286519
  C         8.1034464207        6.3328988356        9.2612851289
  H         7.4043425763        6.2159629395        5.2060781765
  H         5.4295448548        6.1794764165        7.0998690198
  H         6.4303005738        8.9306160876        9.8251311712
  H         5.2057268548        7.6346284312        9.5937858178
  H         5.2176942963        9.0562453556        8.5068606719
  H         7.4398202635        5.4743412871        9.4019226250
  H         8.0549527407        7.1038401212       10.0408632307
  H        10.0131846669        6.9911470678        8.5501038335
  H         9.4638635519        5.3224949369        7.9287528022
      18
 i =      10, E =      -61.5979962933
  C         7.3803294859        6.7642758552        6.1501684182
  C         8.3479018344        7.6403317001        6.6402675867
  O         7.8339788304        8.3579681082        7.6729559874
  H         9.2766242451        8.0079741410        6.2037079514
  C         9.2128553852        6.2458060461        8.4600555188
  C         6.7252008153        7.6784275300        8.0903565265
  C         6.3399051892        6.7823632769        7.0879728190
  C         5.8563708413        8.3598848903        9.0753121500
  C         8.1066733461        6.3306494272        9.2630431595
  H         7.4079711536        6.2131161606        5.2086618238
  H         5.4296654365        6.1798388052        7.0992054290
  H         6.4308570375        8.9298971954        9.8247280124
  H         5.2063307221        7.6348519317        9.5939314750
  H         5.2153193746        9.0585438934        8.5102293735
  H         7.4385387751        5.4739974525        9.4011799009
  H         8.0540764305        7.1041885523       10.0408429041
  H        10.0131791698        6.9913024268        8.5488671936
  H         9.4626868610        5.3228427931        7.9262327266
      18
 i =      11, E =      -61.5981661811
  C         7.3806265567        6.7643103653        6.1502655841
  C         8.3477655706        7.6401705425        6.6399145670
  O         7.8337897644        8.3579651000        7.6724400765
  H         9.2762844981        8.0087985639        6.2035068489
  C         9.2140766904        6.2450196651        8.4603876675
  C         6.7241602923        7.6795884146        8.0887405358
  C         6.3404474086        6.7820362637        7.0883157090
  C         5.8560715526        8.3603700098        9.0751238069
  C         8.1070817810        6.3294588065        9.2650194400
  H         7.4100629883        6.2112546601        5.2098623800
  H         5.4295565240        6.1798748389        7.0988393119
  H         6.4311952834        8.9294996803        9.8245191185
  H         5.2066925198        7.6349384758        9.5940036401
  H         5.2139957171        9.0598226218        8.5121188052
  H         7.4380319363        5.4740790164        9.4006717104
  H         8.0536303353        7.1041900370       10.0406441175
  H        10.0129450644        6.9912073002        8.5481734012
  H         9.4618574317        5.3233538062        7.9249403225
      18
 i =      12, E =      -61.5982668517
  C         7.3808573610        6.7641759763        6.1502515869
  C         8.3478157736        7.6401554444        6.6397485136
  O         7.8336718435        8.3579804783        7.6721650801
  H         9.2760487622        8.0092783669        6.2033866042
  C         9.2140504092        6.2446812471        8.4609950388
  C         6.7235436150        7.6804013009        8.0879763648
  C         6.3405837594        6.7817156224        7.0884073892
  C         5.8558939097        8.3606361571        9.0749720596
  C         8.1079497527        6.3287837632        9.2656093222
  H         7.4113658686        6.2100878183        5.2106452792
  H         5.4295672692        6.1799372860        7.0986163303
  H         6.4314306311        8.9292664987        9.8244100194
  H         5.2069215686        7.6349833687        9.5940511774
  H         5.2131907363        9.0606026120        8.5132826719
  H         7.4376150853        5.4740172096        9.4003913374
  H         8.0533462094        7.1042646859       10.0406401970
  H        10.0129175594        6.9912278300        8.5477547803
  H         9.4613832619        5.3235485054        7.9240474218
      18
 i =      13, E =      -61.6017508347
  C         7.3917297145        6.7582315724        6.1518405439
  C         8.3478887823        7.6395633601        6.6332198131
  O         7.8288627604        8.3586551429        7.6621370620
  H         9.2673412202        8.0283419688        6.1983804816
  C         9.2201195221        6.2306313505        8.4793843459
  C         6.6983774007        7.7115093909        8.0556594803
  C         6.3471290129        6.7714321213        7.0920182638
  C         5.8486732112        8.3717894337        9.0699227048
  C         8.1349930824        6.3022763955        9.2943833895
  H         7.4639444814        6.1621865204        5.2416188184
  H         5.4295008695        6.1817606186        7.0897355550
  H         6.4410627479        8.9199695556        9.8202581864
  H         5.2162784052        7.6365940489        9.5959034439
  H         5.1812649436        9.0916237679        8.5598739551
  H         7.4222395817        5.4732256457        9.3885812141
  H         8.0423254217        7.1059883796       10.0393274002
  H        10.0104405345        6.9909325138        8.5310175320
  H         9.4412903290        5.3332958163        7.8888692786
      18
 i =      14, E =      -61.6017880829
  C         7.3938626199        6.7547379465        6.1527265056
  C         8.3475571252        7.6414541461        6.6337256617
  O         7.8287022893        8.3592620256        7.6638373689
  H         9.2679378003        8.0277241465        6.1984068780
  C         9.2219160215        6.2308500616        8.4755439628
  C         6.6975596678        7.7109994839        8.0557534667
  C         6.3463368636        6.7735166500        7.0907001808
  C         5.8481572096        8.3726980290        9.0707427575
  C         8.1309161039        6.3031540551        9.2954039002
  H         7.4652840773        6.1602780983        5.2427849480
  H         5.4295924781        6.1811636975        7.0897143454
  H         6.4418030994        8.9200018538        9.8209437850
  H         5.2166009010        7.6361426870        9.5958512147
  H         5.1820567399        9.0912394027        8.5605005750
  H         7.4229490964        5.4743779426        9.3878950839
  H         8.0427272207        7.1050073905       10.0388609980
  H        10.0099407023        6.9904119219        8.5310124779
  H         9.4397835298        5.3349714368        7.8881803370
      18
 i =      15, E =      -61.6018236834
  C         7.3953613057        6.7535006503        6.1544900087
  C         8.3471342384        7.6420640967        6.6341093315
  O         7.8284074178        8.3596658995        7.6644214223
  H         9.2683860361        8.0273619201        6.1985309110
  C         9.2186897688        6.2319011025        8.4761664715
  C         6.6971534106        7.7112336672        8.0563680332
  C         6.3457186717        6.7742333201        7.0892054721
  C         5.8482179872        8.3727429639        9.0713368016
  C         8.1324747267        6.3038135022        9.2924852335
  H         7.4664305885        6.1584965778        5.2433598786
  H         5.4298479523        6.1808863854        7.0896811218
  H         6.4423212021        8.9199764581        9.8213942367
  H         5.2168056809        7.6358923641        9.5958717061
  H         5.1822924542        9.0913544326        8.5608533869
  H         7.4225644131        5.4743084769        9.3875802787
  H         8.0428696088        7.1049184724       10.0392391051
  H        10.0101671430        6.9904493349        8.5309354001
  H         9.4390045004        5.3351664554        7.8868387044
      18
 i =      16, E =      -61.6018497929
  C         7.3970712181        6.7515624609        6.1555858682
  C         8.3469916824        7.6432536941        6.6344272229
  O         7.8279237856        8.3601523463        7.6649601518
  H         9.2687551730        8.0268779987        6.1988306958
  C         9.2196920488        6.2322617911        8.4738721017
  C         6.6963791318        7.7113427630        8.0560178519
  C         6.3450563173        6.7755881956        7.0884569289
  C         5.8482282002        8.3729461735        9.0720782782
  C         8.1301098658        6.3044161625        9.2929057590
  H         7.4679506520        6.1565664517        5.2446592595
  H         5.4300772030        6.1804615493        7.0895575553
  H         6.4429485207        8.9198953038        9.8219120677
  H         5.2170135510        7.6355681769        9.5959609352
  H         5.1825015068        9.0915769875        8.5614650928
  H         7.4227509024        5.4748966667        9.3869749224
  H         8.0431632644        7.1042561711       10.0390250048
  H        10.0097470121        6.9900083946        8.5307880946
  H         9.4376955526        5.3362708420        7.8857018783
      18
 i =      17, E =      -61.6018713924
  C         7.3976795715        6.7510156779        6.1562682969
  C         8.3468717918        7.6435310434        6.6345914039
  O         7.8276920825        8.3604367312        7.6650278427
  H         9.2689590469        8.0267198317        6.1989847349
  C         9.2185003903        6.2325883020        8.4740444120
  C         6.6960924498        7.7115942103        8.0560551435
  C         6.3448437212        6.7758934435        7.0879175846
  C         5.8482372308        8.3729983489        9.0723022148
  C         8.1306583968        6.3046292764        9.2918388205
  H         7.4686794873        6.1556453360        5.2452327772
  H         5.4302126874        6.1803117707        7.0894954257
  H         6.4432306029        8.9198341049        9.8221255860
  H         5.2170939989        7.6354347904        9.5960286200
  H         5.1825631363        9.0917105643        8.5617938049
  H         7.4225495307        5.4748697783        9.3867674154
  H         8.0432349147        7.1041891456       10.0391827719
  H        10.0098259592        6.9900155599        8.5306982976
  H         9.4372280999        5.3364561195        7.8849473122
      18
 i =      18, E =      -61.6020400526
  C         7.4082176828        6.7409236251        6.1657420061
  C         8.3453534168        7.6492849691        6.6368104903
  O         7.8233708075        8.3654907765        7.6657870591
  H         9.2721699414        8.0239285345        6.2020858935
  C         9.2126188667        6.2359091978        8.4680013462
  C         6.6902812948        7.7156848277        8.0536270760
  C         6.3412950614        6.7822958867        7.0814114448
  C         5.8482170089        8.3742303795        9.0765219962
  C         8.1274343560        6.3076756574        9.2852786906
  H         7.4818741541        6.1398552333        5.2566348265
  H         5.4324377396        6.1775032742        7.0881859663
  H         6.4480788569        8.9184889236        9.8256066598
  H         5.2185361962        7.6332138681        9.5972600209
  H         5.1832348824        9.0944582230        8.5681105880
  H         7.4210269751        5.4765095092        9.3824394422
  H         8.0448605062        7.1012511982       10.0398052193
  H        10.0089250150        6.9884595912        8.5289283385
  H         9.4279857886        5.3421931717        7.8731418325
      18
 i =      19, E =      -61.6022263875
  C         7.4071767373        6.7419146876        6.1643556461
  C         8.3461080321        7.6493762636        6.6360859608
  O         7.8221892705        8.3673106297        7.6633913871
  H         9.2723379034        8.0241671193        6.2035762551
  C         9.2165903850        6.2342184248        8.4668606491
  C         6.6885446845        7.7183689177        8.0503296746
  C         6.3421078475        6.7813577139        7.0832510418
  C         5.8478164439        8.3746558673        9.0763598571
  C         8.1256463567        6.3060729097        9.2894876653
  H         7.4854327693        6.1371864665        5.2608046190
  H         5.4328781284        6.1771680522        7.0875043328
  H         6.4487293479        8.9174107025        9.8254071021
  H         5.2188055778        7.6332829912        9.5977480217
  H         5.1819602098        9.0962619079        8.5709242234
  H         7.4204925919        5.4766345225        9.3813171132
  H         8.0449713958        7.1006953234       10.0394461762
  H        10.0083487934        6.9879797049        8.5280173461
  H         9.4262273168        5.3434332433        7.8705928100
      18
 i =      20, E =      -61.6023219681
  C         7.4072928127        6.7425621692        6.1649973026
  C         8.3456201616        7.6490230451        6.6361709592
  O         7.8219532653        8.3677996420        7.6628802675
  H         9.2727309376        8.0243162796        6.2037984495
  C         9.2135682257        6.2344772621        8.4689274602
  C         6.6883253128        7.7192175308        8.0503240342
  C         6.3422751215        6.7808869123        7.0828571655
  C         5.8477089142        8.3747739893        9.0762209281
  C         8.1286147651        6.3057753527        9.2873182871
  H         7.4863868728        6.1360386340        5.2614035720
  H         5.4330217545        6.1770753898        7.0874093589
  H         6.4489550454        8.9171411461        9.8253961764
  H         5.2189264688        7.6332923995        9.5978220482
  H         5.1816429181        9.0967167976        8.5716778880
  H         7.4198236122        5.4761684660        9.3811590115
  H         8.0449090670        7.1009656556       10.0399180512
  H        10.0087792765        6.9882338018        8.5277996264
  H         9.4259720637        5.3431783979        7.8694404114
      18
 i =      21, E =      -61.6024540159
  C         7.4076812126        6.7425724690        6.1647632532
  C         8.3457319382        7.6497638367        6.6359736118
  O         7.8209854894        8.3692908215        7.6616924693
  H         9.2732692265        8.0243895206        6.2048873615
  C         9.2156064587        6.2337566402        8.4675984295
  C         6.6869398389        7.7211884583        8.0483695794
  C         6.3425404663        6.7808420664        7.0836469177
  C         5.8473202746        8.3753943768        9.0762220350
  C         8.1273814482        6.3047649866        9.2896802552
  H         7.4896441170        6.1327812833        5.2644433699
  H         5.4334118002        6.1765745477        7.0870154758
  H         6.4496817546        8.9162240391        9.8253507858
  H         5.2193735862        7.6333215080        9.5980117035
  H         5.1804760947        9.0983474724        8.5742620216
  H         7.4193971867        5.4765324475        9.3800799259
  H         8.0450648144        7.1002874933       10.0396639131
  H        10.0082834976        6.9876586487        8.5270515172
  H         9.4242249539        5.3445162912        7.8670462786
      18
 i =      22, E =      -61.6025034066
  C         7.4077936390        6.7427118865        6.1651295051
  C         8.3456108120        7.6497414110        6.6360077380
  O         7.8207978518        8.3696647970        7.6614616703
  H         9.2734773688        8.0244344388        6.2051033030
  C         9.2138902442        6.2339282370        8.4685999379
  C         6.6867124366        7.7216980371        8.0483026579
  C         6.3426385154        6.7806684055        7.0833761439
  C         5.8472442649        8.3755110669        9.0761829195
  C         8.1289818277        6.3046337130        9.2884655808
  H         7.4903985291        6.1319204257        5.2650184003
  H         5.4335460096        6.1764846393        7.0869663154
  H         6.4498752401        8.9160414424        9.8253783599
  H         5.2194819860        7.6333187099        9.5980431356
  H         5.1802154291        9.0987197821        8.5748387088
  H         7.4189771178        5.4762982205        9.3799073106
  H         8.0450497552        7.1003773443       10.0399245986
  H        10.0085096046        6.9877732165        8.5268929771
  H         9.4239435373        5.3444838434        7.8662263666
      18
 i =      23, E =      -61.6034617466
  C         7.4143206714        6.7410965207        6.1693601636
  C         8.3444467604        7.6553719205        6.6356681061
  O         7.8133907157        8.3820914805        7.6543777947
  H         9.2791825462        8.0249734626        6.2138986734
  C         9.2123800568        6.2325828922        8.4641651520
  C         6.6759336907        7.7369131243        8.0363332423
  C         6.3443835421        6.7810019709        7.0833922554
  C         5.8441735188        8.3809528018        9.0767559938
  C         8.1312812108        6.2990306734        9.2922773477
  H         7.5182366846        6.1024984803        5.2899002278
  H         5.4381332156        6.1723921428        7.0848184822
  H         6.4567779540        8.9092579585        9.8262520652
  H         5.2235487116        7.6331875711        9.5989997534
  H         5.1703313012        9.1127090574        8.5963805412
  H         7.4129406315        5.4775854424        9.3708618242
  H         8.0463447512        7.0959910555       10.0404771551
  H        10.0069873796        6.9847051083        8.5209785913
  H         9.4092706874        5.3539698272        7.8434930570
      18
 i =      24, E =      -61.6034788209
  C         7.4145912669        6.7404082969        6.1693532568
  C         8.3448744179        7.6558907438        6.6359118327
  O         7.8132527037        8.3820639006        7.6543576429
  H         9.2791328097        8.0248999927        6.2141067656
  C         9.2107989729        6.2329267231        8.4646878900
  C         6.6757687229        7.7370767930        8.0364298561
  C         6.3442547346        6.7812860466        7.0831743218
  C         5.8441290887        8.3811330108        9.0767491889
  C         8.1323265234        6.2991078129        9.2909005993
  H         7.5187224708        6.1021200006        5.2905908027
  H         5.4383285871        6.1722908111        7.0848819682