      18
 i =       0, E =      -61.5876325432
  C         7.2671443281        6.8788079728        6.0802100306
  C         8.3536125899        7.6079446869        6.6634602697
  O         7.8512608821        8.3543649207        7.6864242462
  H         9.2883713187        7.9697299771        6.2244024180
  C         9.1966530756        6.2835371436        8.4119534645
  C         6.7894818318        7.6130731176        8.1572800028
  C         6.3226231800        6.7990149016        7.0833803310
  C         5.8701446806        8.3432710198        9.0656154269
  C         8.0489355125        6.3854452371        9.2167638433
  H         7.3866650431        6.2322232214        5.2043656807
  H         5.4422781769        6.1545713546        7.1110233567
  H         6.4187838383        8.9472007303        9.8056511741
  H         5.2074625991        7.6321101252        9.5849714345
  H         5.2426221883        9.0139643481        8.4510154639
  H         7.4628013927        5.4811651409        9.4261967736
  H         8.0678974537        7.0983328674       10.0563414593
  H        10.0227044235        6.9891567110        8.5816626306
  H         9.4926944031        5.3190895122        7.9825447518
      18
 i =       1, E =      -61.5899305655
  C         7.3005324417        6.8609255683        6.0933328858
  C         8.3522874228        7.6078403069        6.6640593766
  O         7.8493553895        8.3551482678        7.6852820562
  H         9.2856366848        7.9699646228        6.2233034311
  C         9.1918274803        6.2867577860        8.4065419911
  C         6.7896339878        7.6125256483        8.1596966333
  C         6.3198342880        6.8002344009        7.0834815761
  C         5.8700114940        8.3430962391        9.0673015395
  C         8.0447005411        6.3888555367        9.2116260301
  H         7.3817399848        6.2352107994        5.2030929147
  H         5.4397680051        6.1566576225        7.1113222156
  H         6.4187662212        8.9485062922        9.8070034112
  H         5.2081923679        7.6318264393        9.5877811652
  H         5.2415249845        9.0131137064        8.4518372977
  H         7.4597377136        5.4831272935        9.4230021672
  H         8.0655953298        7.0997260101       10.0532035978
  H        10.0193695306        6.9906350411        8.5778887339
  H         9.4891856004        5.3208094960        7.9786908559
      18
 i =       2, E =      -61.5908101384
  C         7.3036022531        6.8490937625        6.1026276465
  C         8.3581692357        7.6106654725        6.6665636503
  O         7.8480400401        8.3564561976        7.6846622402
  H         9.2841447905        7.9705628712        6.2226472566
  C         9.1904442370        6.2873389321        8.4043715740
  C         6.7884039796        7.6118427744        8.1589409974
  C         6.3253998473        6.8014968895        7.0803284177
  C         5.8697658267        8.3436508311        9.0683920591
  C         8.0425066553        6.3898584157        9.2098271056
  H         7.3810487817        6.2357437319        5.2017713840
  H         5.4382258317        6.1575516569        7.1110124495
  H         6.4187133910        8.9486603323        9.8076318537
  H         5.2084333240        7.6318414111        9.5890991069
  H         5.2411324429        9.0129606943        8.4531161320
  H         7.4584566340        5.4842752965        9.4212985476
  H         8.0646868851        7.1001543082       10.0517792048
  H        10.0177231795        6.9912667693        8.5758701177
  H         9.4871793929        5.3219961718        7.9767403814
      18
 i =       3, E =      -61.5916522670
  C         7.3150330306        6.8371976257        6.1092685172
  C         8.3593832504        7.6098383654        6.6707283628
  O         7.8467608523        8.3589660430        7.6838025108
  H         9.2846832484        7.9729075956        6.2205498206
  C         9.1884145749        6.2886633540        8.4018286433
  C         6.7884601357        7.6124846682        8.1589699984
  C         6.3241281953        6.7990612986        7.0806553194
  C         5.8693539118        8.3435982240        9.0690474806
  C         8.0401132178        6.3915259855        9.2074230538
  H         7.3802675119        6.2363114523        5.2011921257
  H         5.4387973080        6.1605789665        7.1102405416
  H         6.4189572990        8.9486361456        9.8085894271
  H         5.2086402452        7.6320281201        9.5906505734
  H         5.2403741430        9.0133911936        8.4551004245
  H         7.4567122989        5.4852435231        9.4192810418
  H         8.0637497676        7.1004041692       10.0502200039
  H        10.0158627151        6.9918007124        8.5734374287
  H         9.4848148588        5.3229424429        7.9739831134
      18
 i =       4, E =      -61.5921565034
  C         7.3194586535        6.8294664213        6.1154925943
  C         8.3626211306        7.6095023289        6.6727168278
  O         7.8454185152        8.3606318598        7.6832004426
  H         9.2839777791        7.9744273367        6.2195543534
  C         9.1871526961        6.2893454667        8.4001420247
  C         6.7876142160        7.6125753032        8.1585725412
  C         6.3274027670        6.7988730011        7.0800221428
  C         5.8692393627        8.3437820176        9.0696401548
  C         8.0385208718        6.3924406272        9.2060646150
  H         7.3804686221        6.2360287594        5.2004973160
  H         5.4376995357        6.1616473017        7.1096545121
  H         6.4191330980        8.9483198600        9.8092437205
  H         5.2086810903        7.6321550441        9.5916496358
  H         5.2397286155        9.0140783486        8.4567802632
  H         7.4555818850        5.4859093288        9.4178604392
  H         8.0632380961        7.1004505814       10.0493314650
  H        10.0147589378        6.9921091334        8.5717863460
  H         9.4831104643        5.3236454631        7.9719873202
      18
 i =       5, E =      -61.5926990614
  C         7.3269928639        6.8206219872        6.1204699217
  C         8.3650174720        7.6082080955        6.6759931113
  O         7.8441092315        8.3626283027        7.6821328685
  H         9.2836983300        7.9768209612        6.2179475065
  C         9.1856055024        6.2902604663        8.3980748111
  C         6.7872910489        7.6134846522        8.1584232320
  C         6.3280166023        6.7967843693        7.0807312566
  C         5.8688492839        8.3438947331        9.0701969407
  C         8.0367298010        6.3934899024        9.2045104372
  H         7.3809560785        6.2357109548        5.2005543136
  H         5.4375234894        6.1638250778        7.1087487851
  H         6.4195092117        8.9477452739        9.8101293816
  H         5.2086889445        7.6323832198        9.5928006432
  H         5.2388627682        9.0152213394        8.4591540291
  H         7.4541791570        5.4866044749        9.4161189468
  H         8.0627073260        7.1004114390       10.0483974440
  H        10.0135298111        6.9923669446        8.5698078467
  H         9.4809846240        5.3244478433        7.9693936711
      18
 i =       6, E =      -61.5930511246
  C         7.3308965442        6.8148575656        6.1248950205
  C         8.3673145491        7.6071494248        6.6780153289
  O         7.8431045865        8.3639750735        7.6813210925
  H         9.2831484767        7.9785961166        6.2169473139
  C         9.1845150097        6.2908815832        8.3966530818
  C         6.7867363231        7.6140001147        8.1580529564
  C         6.3302473132        6.7957627367        7.0807244851
  C         5.8685969920        8.3441358118        9.0706804278
  C         8.0356394578        6.3941094783        9.2035604694
  H         7.3817764420        6.2350102166        5.2005260001
  H         5.4368007257        6.1649859466        7.1080640498
  H         6.4198204203        8.9471546470        9.8108118610
  H         5.2086432512        7.6325372529        9.5935733126
  H         5.2381547189        9.0163110098        8.4610837709
  H         7.4531572059        5.4870536490        9.4148411978
  H         8.0623976020        7.1003207457       10.0478533517
  H        10.0127536846        6.9924805160        8.5684099971
  H         9.4793882320        5.3250457411        7.9673973444
      18
 i =       7, E =      -61.5932054591
  C         7.3334222562        6.8118537135        6.1265498272
  C         8.3678885967        7.6071102827        6.6785055650
  O         7.8425574434        8.3645103804        7.6808191667
  H         9.2827678138        7.9798897506        6.2162283287
  C         9.1844636341        6.2905657334        8.3967957334
  C         6.7858340512        7.6151062644        8.1571361135
  C         6.3307089184        6.7949565299        7.0810421571
  C         5.8683083491        8.3444103122        9.0709268643
  C         8.0360732044        6.3935640624        9.2039096762
  H         7.3824901275        6.2344550603        5.2008147506
  H         5.4365773275        6.1657906138        7.1076220008
  H         6.4201835028        8.9464825315        9.8113818845
  H         5.2084515423        7.6326769258        9.5937711591
  H         5.2376595864        9.0175337594        8.4626719950
  H         7.4527123373        5.4869643723        9.4142478467
  H         8.0624042518        7.1000942011       10.0477748002
  H        10.0126058593        6.9923290037        8.5677310479
  H         9.4785832110        5.3251719695        7.9661461299
      18
 i =       8, E =      -61.5950917600
  C         7.3787915556        6.7561006359        6.1606455493
  C         8.3794649085        7.6055954780        6.6871579511
  O         7.8322557987        8.3741438483        7.6711811618
  H         9.2750717971        8.0046757454        6.2029694140
  C         9.1826674993        6.2847493341        8.4001852072
  C         6.7676751306        7.6363238875        8.1387246314
  C         6.3437331815        6.7802306347        7.0859351936
  C         5.8628183371        8.3500924205        9.0758275884
  C         8.0457808980        6.3826146073        9.2106440077
  H         7.3978204756        6.2220799911        5.2063549931
  H         5.4310592532        6.1803785549        7.0990444742
  H         6.4271712601        8.9335352037        9.8223980757
  H         5.2050622950        7.6352304429        9.5977367297
  H         5.2275892946        9.0413957129        8.4936169919
  H         7.4434350844        5.4852492462        9.4023854331
  H         8.0620500837        7.0963210951       10.0461737413
  H        10.0097547894        6.9896911521        8.5543250437
  H         9.4625665311        5.3278550870        7.9410032831
      18
 i =       9, E =      -61.5951967331
  C         7.3781070309        6.7568750731        6.1608668237
  C         8.3800714320        7.6043289731        6.6873249965
  O         7.8325532596        8.3738299357        7.6708426958
  H         9.2743437822        8.0051550625        6.2032637170
  C         9.1824982889        6.2848629798        8.3997254254
  C         6.7671433165        7.6367965539        8.1377711149
  C         6.3455006586        6.7794310876        7.0863669045
  C         5.8626614381        8.3505732004        9.0758767026
  C         8.0462026009        6.3820699401        9.2112823877
  H         7.4001714469        6.2203294434        5.2080892738
  H         5.4308422476        6.1804827098        7.0985629758
  H         6.4274283981        8.9330983089        9.8227135903
  H         5.2053104924        7.6351867846        9.5979769610
  H         5.2268034160        9.0423915386        8.4950337641
  H         7.4426059645        5.4855326131        9.4015037303
  H         8.0615959455        7.0966800827       10.0460493394
  H        10.0095800497        6.9897618202        8.5536468402
  H         9.4613608929        5.3286948675        7.9393597524
      18
 i =      10, E =      -61.5953496454
  C         7.3782298790        6.7575808926        6.1602829884
  C         8.3808699715        7.6026143687        6.6880136866
  O         7.8329372545        8.3732720928        7.6703830026
  H         9.2733903462        8.0059704064        6.2035599027
  C         9.1819626208        6.2852233999        8.3991188885
  C         6.7665143785        7.6381670009        8.1366476752
  C         6.3463336537        6.7776164938        7.0874640895
  C         5.8624184540        8.3510962372        9.0758447307
  C         8.0471409920        6.3812442234        9.2121661030
  H         7.4040328896        6.2173476908        5.2110495602
  H         5.4311086188        6.1809932586        7.0977596777
  H         6.4279230030        8.9323836695        9.8232445429
  H         5.2057879653        7.6351797706        9.5983277611
  H         5.2254511659        9.0441085552        8.4974363612
  H         7.4411647882        5.4859003986        9.4000732435
  H         8.0608243192        7.0972360497       10.0458362960
  H        10.0093100561        6.9898715471        8.5524964685
  H         9.4593852999        5.3299417100        7.9364665394
      18
 i =      11, E =      -61.5954297424
  C         7.3782525718        6.7577266783        6.1605605065
  C         8.3812953897        7.6018723536        6.6884175228
  O         7.8330131594        8.3730335732        7.6702601279
  H         9.2729779686        8.0064131004        6.2036604658
  C         9.1816520967        6.2854318070        8.3987720651
  C         6.7660223203        7.6388725386        8.1359437533
  C         6.3471373200        6.7770600404        7.0877897844
  C         5.8623188576        8.3514223362        9.0758892086
  C         8.0476673571        6.3807809893        9.2126615681
  H         7.4062423175        6.2154168008        5.2124064976
  H         5.4310577834        6.1810934804        7.0973477028
  H         6.4282053655        8.9319663417        9.8235194531
  H         5.2060933279        7.6351797641        9.5984957384
  H         5.2246851745        9.0450856097        8.4988462834
  H         7.4403573113        5.4861048367        9.3992746495
  H         8.0603831840        7.0975065231       10.0457049048
  H        10.0091614045        6.9899292430        8.5518258968
  H         9.4582544755        5.3306355770        7.9347483593
      18
 i =      12, E =      -61.5954780221
  C         7.3784641380        6.7576718954        6.1605821864
  C         8.3815478999        7.6014851369        6.6887020545
  O         7.8330464759        8.3729251036        7.6702102811
  H         9.2727514577        8.0066781919        6.2037077832
  C         9.1814636669        6.2855565838        8.3985420863
  C         6.7657173370        7.6393610856        8.1355507962
  C         6.3473507251        6.7766882220        7.0880309540
  C         5.8622485055        8.3516143041        9.0759090523
  C         8.0479757146        6.3804949605        9.2129614310
  H         7.4076072596        6.2142186128        5.2132979182
  H         5.4311072438        6.1811902685        7.0970981089
  H         6.4283949487        8.9317112466        9.8236920107
  H         5.2062897501        7.6351795234        9.5985956308
  H         5.2242144009        9.0456893643        8.4997378430
  H         7.4398631040        5.4862318540        9.3987834898
  H         8.0601106096        7.0976613579       10.0456243687
  H        10.0090695924        6.9899614679        8.5514053017
  H         9.4575468509        5.3310715789        7.9336627667
      18
 i =      13, E =      -61.5967967074
  C         7.3872780001        6.7541507959        6.1645729854
  C         8.3912158749        7.5868223864        6.6999877074
  O         7.8337901497        8.3693580849        7.6685375789
  H         9.2642415258        8.0170920925        6.2055210087
  C         9.1735697548        6.2905533230        8.3893084222
  C         6.7526547497        7.6586365852        8.1194238326
  C         6.3572799417        6.7638554375        7.0956574915
  C         5.8593831338        8.3595712602        9.0770899019
  C         8.0603383964        6.3691242795        9.2244357075
  H         7.4625226032        6.1650786311        5.2482422613
  H         5.4324094268        6.1842696300        7.0873731260
  H         6.4361812232        8.9215060927        9.8305796090
  H         5.2142866613        7.6350812832        9.6025313917
  H         5.2054365664        9.0698485161        8.5358298465
  H         7.4201594949        5.4912774045        9.3792093160
  H         8.0492358041        7.1035595102       10.0424685998
  H        10.0053978545        6.9911627636        8.5344295374
  H         9.4290325349        5.3486750762        7.8896360682
      18
 i =      14, E =      -61.5969295275
  C         7.3898070770        6.7499722081        6.1661518169
  C         8.3911201985        7.5888782567        6.7004678841
  O         7.8328130651        8.3709175810        7.6691964770
  H         9.2650753628        8.0165143401        6.2056055376
  C         9.1732286005        6.2905624612        8.3883814419
  C         6.7514371515        7.6587185641        8.1191253209
  C         6.3563228557        6.7663091944        7.0937312433
  C         5.8591187268        8.3600443412        9.0777502067
  C         8.0594445356        6.3692177373        9.2238616347
  H         7.4634847165        6.1634349543        5.2493034953
  H         5.4323726330        6.1836051589        7.0876325040
  H         6.4366952300        8.9213651386        9.8307631700
  H         5.2145327907        7.6349033857        9.6024666452
  H         5.2057123825        9.0698867676        8.5369235428
  H         7.4203637335        5.4917001152        9.3789532934
  H         8.0493376927        7.1028334043       10.0423154187
  H        10.0053652630        6.9909356137        8.5340164715
  H         9.4281679578        5.3494761273        7.8881295691
      18
 i =      15, E =      -61.5970059058
  C         7.3917237752        6.7481632437        6.1680540220
  C         8.3906612938        7.5897409987        6.7007766332
  O         7.8321241210        8.3718932714        7.6692597648
  H         9.2657419747        8.0161972200        6.2057390993
  C         9.1726870909        6.2908365890        8.3879884084
  C         6.7507035152        7.6591894891        8.1189756512
  C         6.3554801743        6.7673908499        7.0922864490
  C         5.8590371222        8.3601114634        9.0781667362
  C         8.0591864463        6.3695062867        9.2231289952
  H         7.4643943934        6.1618429995        5.2498758078
  H         5.4325930178        6.1833029801        7.0877629269
  H         6.4371406273        8.9212680844        9.8309588415
  H         5.2146598809        7.6347614859        9.6025065701
  H         5.2057350530        9.0701243833        8.5376907161
  H         7.4203061173        5.4917673049        9.3787682405
  H         8.0494159309        7.1023324578       10.0422533534
  H        10.0052934551        6.9907161556        8.5336795470
  H         9.4275302578        5.3499261660        7.8868378770
      18
 i =      16, E =      -61.5970848919
  C         7.3936664056        6.7457639120        6.1695912003
  C         8.3906505845        7.5909567857        6.7012140836
  O         7.8312527449        8.3730640147        7.6692037861
  H         9.2663511799        8.0157336941        6.2060721053
  C         9.1722807470        6.2910714301        8.3873024181
  C         6.7497663263        7.6596812287        8.1184677553
  C         6.3547182479        6.7687883925        7.0911168099
  C         5.8589362878        8.3602663317        9.0786821720
  C         8.0585856112        6.3698145706        9.2224455518
  H         7.4656697155        6.1600259824        5.2510713170
  H         5.4327950792        6.1828792519        7.0878279313
  H         6.4376935074        8.9211121624        9.8312097815
  H         5.2147778728        7.6345499311        9.6026239720
  H         5.2057048412        9.0704807702        8.5386788762
  H         7.4202503089        5.4919069646        9.3784727864
  H         8.0495248690        7.1017294935       10.0421665434
  H        10.0051673047        6.9904413247        8.5332400596
  H         9.4266637329        5.3506025717        7.8852318073
      18
 i =      17, E =      -61.5971157318
  C         7.3944227395        6.7449989894        6.1703222944
  C         8.3905661112        7.5912950448        6.7014033927
  O         7.8308931419        8.3735675730        7.6690890044
  H         9.2666420743        8.0155721441        6.2062421194
  C         9.1720310857        6.2911932018        8.3870350784
  C         6.7493835252        7.6599931094        8.1182557167
  C         6.3544787551        6.7692217060        7.0906249777
  C         5.8588893475        8.3603269017        9.0788764163
  C         8.0583800706        6.3699458887        9.2221038902
  H         7.4663107819        6.1591567181        5.2516360345
  H         5.4329092472        6.1827165496        7.0878287718
  H         6.4379463208        8.9210258292        9.8313248997
  H         5.2148232659        7.6344543936        9.6026999827
  H         5.2056580578        9.0706739226        8.5391387967
  H         7.4201933829        5.4919481222        9.3783216324
  H         8.0495732571        7.1014901313       10.0421465514
  H        10.0051211158        6.9903299707        8.5330406274
  H         9.4262651031        5.3508991637        7.8844855276
      18
 i =      18, E =      -61.5974904685
  C         7.4067957014        6.7318341391        6.1814790943
  C         8.3901107044        7.5972020169        6.7047988871
  O         7.8246142555        8.3823569364        7.6667593080
  H         9.2713535735        8.0126675452        6.2096310772
  C         9.1680169874        6.2933135684        8.3819799719
  C         6.7427386976        7.6655537682        8.1140417977
  C         6.3506027657        6.7763902221        7.0833138732
  C         5.8579805835        8.3615279390        9.0822694935
  C         8.0544136815        6.3721799705        9.2165876787
  H         7.4780962319        6.1439240971        5.2625979349
  H         5.4350041671        6.1798910675        7.0875986164
  H         6.4423788126        8.9193382106        9.8333187011
  H         5.2156461036        7.6328025022        9.6041355029
  H         5.2046132471        9.0742971157        8.5474291378
  H         7.4191078418        5.4927415482        9.3754436622
  H         8.0504366250        7.0973295564       10.0417350665
  H        10.0042016415        6.9883409993        8.5294755720
  H         9.4190456490        5.3563174729        7.8712187252
      18
 i =      19, E =      -61.5975922315
  C         7.4052089591        6.7336283667        6.1803353486
  C         8.3914496565        7.5960148046        6.7053426333
  O         7.8241875086        8.3833423216        7.6650370761
  H         9.2714395724        8.0125821224        6.2112588690
  C         9.1674358990        6.2938548867        8.3806404341
  C         6.7422053425        7.6673313042        8.1125717264
  C         6.3522380411        6.7747387369        7.0850960818
  C         5.8576303517        8.3620404552        9.0823914265
  C         8.0538067735        6.3722283592        9.2166039146
  H         7.4819328076        6.1407826215        5.2667333337
  H         5.4356275441        6.1796610677        7.0867839765
  H         6.4430726298        8.9184659304        9.8335780138
  H         5.2158764632        7.6326658005        9.6047286850
  H         5.2034852305        9.0758377706        8.5494796538
  H         7.4183285402        5.4928468695        9.3741953577
  H         8.0505845347        7.0971219929       10.0417095160
  H        10.0039365638        6.9880921588        8.5287762809
  H         9.4172419807        5.3576180233        7.8684805466
      18
 i =      20, E =      -61.5976165231
  C         7.4054488126        6.7340762266        6.1804870730
  C         8.3912026305        7.5956640100        6.7055923309
  O         7.8240751995        8.3836497441        7.6647592231
  H         9.2717508146        8.0126419216        6.2115153884
  C         9.1669649322        6.2941184479        8.3804024888
  C         6.7420825229        7.6678927351        8.1124622422
  C         6.3522483955        6.7743904791        7.0851893823
  C         5.8575394746        8.3621662332        9.0823647962
  C         8.0539664518        6.3721987820        9.2163587535
  H         7.4829144485        6.1396848483        5.2675146736
  H         5.4358491442        6.1795856882        7.0866515407
  H         6.4432745173        8.9182445943        9.8336544738
  H         5.2160065987        7.6326680190        9.6048137310
  H         5.2031823014        9.0762528123        8.5501039364
  H         7.4180780715        5.4928576818        9.3738680139
  H         8.0506054217        7.0970821088       10.0417473624
  H        10.0039109940        6.9880321701        8.5286000992
  H         9.4167570878        5.3579147423        7.8676703112
      18
 i =      21, E =      -61.5976918819
  C         7.4055947636        6.7344856670        6.1804602757
  C         8.3917083763        7.5954518996        6.7062716839
  O         7.8235388876        8.3847120811        7.6640394020
  H         9.2723096432        8.0125341645        6.2126592525
  C         9.1661024160        6.2948382578        8.3790617451
  C         6.7413969618        7.6693551948        8.1116364182
  C         6.3528168339        6.7739695056        7.0857656207
  C         5.8572546854        8.3627313218        9.0824690050
  C         8.0538425592        6.3721174978        9.2161525201
  H         7.4862906276        6.1361656468        5.2705185260
  H         5.4363566068        6.1791117750        7.0862102365
  H         6.4439264530        8.9174881942        9.8339073433
  H         5.2164632364        7.6326632535        9.6050791104
  H         5.2021462598        9.0776784984        8.5522413705
  H         7.4173332854        5.4930614826        9.3726851288
  H         8.0506881850        7.0968086087       10.0417130574
  H        10.0036883884        6.9877586430        8.5279713150
  H         9.4150004255        5.3591505158        7.8649784285
      18
 i =      22, E =      -61.5977088780
  C         7.4057367948        6.7344933373        6.1805860517
  C         8.3917468762        7.5954457393        6.7064319872
  O         7.8234197259        8.3849658989        7.6639178765
  H         9.2724745858        8.0125169824        6.2129044426
  C         9.1658854641        6.2950046387        8.3787531693
  C         6.7412148604        7.6696840964        8.1114546940
  C         6.3528832071        6.7739225963        7.0857518392
  C         5.8571912586        8.3628685494        9.0825094637
  C         8.0538441741        6.3721033515        9.2160841242
  H         7.4870541737        6.1353321157        5.2711846975
  H         5.4365035926        6.1790049025        7.0861422240
  H         6.4440857467        8.9173324163        9.8339793979
  H         5.2165733130        7.6326599452        9.6051259141
  H         5.2019054822        9.0780159820        8.5527466651
  H         7.4171575115        5.4931107569        9.3724091919
  H         8.0507061485        7.0967341877       10.0417050852
  H        10.0036459894        6.9876987205        8.5278255238
  H         9.4145870307        5.3594417023        7.8643365634
      18
 i =      23, E =      -61.5982423853
  C         7.4111765957        6.7333056521        6.1844296041
  C         8.3943214151        7.5962504783        6.7123098649
  O         7.8187111228        8.3942748244        7.6596413999
  H         9.2781202241        8.0115997582        6.2222246735
  C         9.1583967372        6.3011307973        8.3670722748
  C         6.7341541242        7.6814410977        8.1041819970
  C         6.3553604037        6.7733750659        7.0857636295
  C         5.8548501622        8.3680627964        9.0840651556
  C         8.0534102394        6.3714934015        9.2138005020
  H         7.5152783680        6.1048355834        5.2963717163
  H         5.4417825108        6.1748014366        7.0837014462
  H         6.4499991650        8.9116675402        9.8367148440
  H         5.2206228030        7.6325026825        9.6068257959
  H         5.1930576276        9.0904996101        8.5715561260
  H         7.4107845110        5.4951500960        9.3621206867
  H         8.0514086599        7.0938661043       10.0413512285
  H        10.0019629376        6.9853883950        8.5223665610
  H         9.3991955740        5.3703617048        7.8405000247
      18
 i =      24, E =      -61.5982550410
  C         7.4116987344        6.7326736741        6.1845154276
  C         8.3944841487        7.5965602470        6.7124085525
  O         7.8185386758        8.3943083529        7.6596661320
  H         9.2781920391        8.0115652930        6.2224163172
  C         9.1583506163        6.3012354849        8.3668977288
  C         6.7338217717        7.6816323604        8.1039769195
  C         6.3552811231        6.7738491695        7.0856166884
  C         5.8548211364        8.3681883031        9.0841165295
  C         8.0533373834        6.3714742498        9.2136952691
  H         7.5157021866        6.1044650963        5.2970050745
  H         5.4418671163        6.1746311532        7.0837714942