      18
 i =       0, E =      -61.5970608873
  C         7.2984135011        6.8373904017        6.1157964487
  C         8.3961218714        7.5649094717        6.7279224478
  O         7.8479525740        8.3735982219        7.6848339285
  H         9.2929594769        7.9508278365        6.2433602077
  C         9.1506928904        6.3319816637        8.3197913892
  C         6.8117043880        7.5969514901        8.1897689104
  C         6.3326032557        6.7934115671        7.0845683130
  C         5.8758882490        8.3326597631        9.0814716590
  C         7.9942727213        6.4300888122        9.1693541690
  H         7.4053977095        6.2130420598        5.2241718356
  H         5.4285009739        6.1865032349        7.0903394216
  H         6.4180656113        8.9284878806        9.8330786698
  H         5.2038716582        7.6244344321        9.5936095325
  H         5.2586633834        9.0104271701        8.4655399653
  H         7.4351966446        5.5091220859        9.3801386071
  H         8.0859488987        7.0786008386       10.0385488218
  H        10.0017045054        6.9595404181        8.5603028359
  H         9.4221974048        5.3536828987        7.9050492938
      18
 i =       1, E =      -61.5990037802
  C         7.3187938157        6.8300109835        6.1231379942
  C         8.3946855932        7.5585496746        6.7311122262
  O         7.8427254785        8.3797119167        7.6839221478
  H         9.2923464419        7.9573056782        6.2372682671
  C         9.1395595571        6.3256649978        8.3141228749
  C         6.8193934603        7.5893417020        8.1952519365
  C         6.3303711757        6.7964857298        7.0821665745
  C         5.8740163524        8.3350622494        9.0797144250
  C         7.9891635583        6.4294386877        9.1565281938
  H         7.3994295307        6.2168130537        5.2203044662
  H         5.4265843467        6.1819607177        7.0936793953
  H         6.4188312066        8.9307793815        9.8306015058
  H         5.2043708880        7.6255173675        9.5935668158
  H         5.2553536736        9.0124484030        8.4658004316
  H         7.4377468803        5.5052153620        9.3860035193
  H         8.0838957534        7.0856887702       10.0487372753
  H        10.0119640794        6.9705584725        8.5634251733
  H         9.4306116033        5.3487844494        7.9136160176
      18
 i =       2, E =      -61.6000840865
  C         7.3191909332        6.8224660545        6.1273517375
  C         8.4023972112        7.5615285248        6.7333839785
  O         7.8421832700        8.3798705366        7.6822787597
  H         9.2889513745        7.9588610679        6.2359644448
  C         9.1476530764        6.3311358184        8.3117073279
  C         6.8191776684        7.5873662883        8.1981094865
  C         6.3327293696        6.7966792740        7.0791902702
  C         5.8747339247        8.3345310220        9.0791487654
  C         7.9825129231        6.4344981637        9.1611677115
  H         7.3972716765        6.2192190633        5.2187065529
  H         5.4269998917        6.1806721292        7.0949314652
  H         6.4189252136        8.9321173703        9.8292460355
  H         5.2045942885        7.6262739273        9.5938670971
  H         5.2538916329        9.0131185150        8.4653276965
  H         7.4389730947        5.5040558054        9.3882713884
  H         8.0822545552        7.0841150755       10.0462278225
  H        10.0078532801        6.9696776353        8.5623401827
  H         9.4345059001        5.3455748595        7.9175279067
      18
 i =       3, E =      -61.6009234681
  C         7.3253077134        6.8159918163        6.1316186286
  C         8.4040254494        7.5597852957        6.7377183789
  O         7.8414831041        8.3814576249        7.6810851108
  H         9.2880707848        7.9628440877        6.2323649347
  C         9.1461398502        6.3325549445        8.3107957258
  C         6.8217633210        7.5840198217        8.2002289165
  C         6.3323674236        6.7953216971        7.0784334179
  C         5.8742544367        8.3352896686        9.0782515336
  C         7.9799967010        6.4378554529        9.1579209455
  H         7.3943681516        6.2218269748        5.2161887276
  H         5.4285003804        6.1796166622        7.0962798403
  H         6.4190372656        8.9338754914        9.8273066025
  H         5.2049333291        7.6272227716        9.5944086962
  H         5.2524746278        9.0132659463        8.4650643749
  H         7.4408391652        5.5029831466        9.3913966017
  H         8.0802642081        7.0849870047       10.0469953258
  H        10.0080348568        6.9725208574        8.5626537310
  H         9.4395464739        5.3437186296        7.9238118581
      18
 i =       4, E =      -61.6014587429
  C         7.3279442077        6.8110557574        6.1347648047
  C         8.4072618702        7.5591125814        6.7395371365
  O         7.8407069789        8.3822950438        7.6806405300
  H         9.2864730017        7.9650459084        6.2305570467
  C         9.1470658057        6.3337174150        8.3096535567
  C         6.8226164244        7.5824780956        8.2016914031
  C         6.3338830597        6.7944923528        7.0779262279
  C         5.8743563405        8.3352943204        9.0776436654
  C         7.9769687326        6.4396727314        9.1574302658
  H         7.3927688651        6.2235530542        5.2146067676
  H         5.4290123158        6.1787252235        7.0970133433
  H         6.4190876523        8.9351087789        9.8260186256
  H         5.2051768406        7.6279336770        9.5949361738
  H         5.2514991758        9.0133207614        8.4647937463
  H         7.4423689421        5.5031857643        9.3930205543
  H         8.0788779564        7.0853669382       10.0468170313
  H        10.0072775210        6.9740393742        8.5625964310
  H         9.4425059802        5.3431645219        7.9281510047
      18
 i =       5, E =      -61.6020714457
  C         7.3320763267        6.8054165638        6.1382079648
  C         8.4097753697        7.5575061969        6.7423839708
  O         7.8400697642        8.3832122661        7.6799011409
  H         9.2850922652        7.9680575496        6.2280703707
  C         9.1467962325        6.3352603334        8.3088325185
  C         6.8239545919        7.5806969532        8.2030694942
  C         6.3350852477        6.7928327413        7.0780530947
  C         5.8742315019        8.3355184883        9.0770243993
  C         7.9744725351        6.4420424884        9.1559597241
  H         7.3910546349        6.2254282613        5.2128009321
  H         5.4298773759        6.1779760191        7.0977220305
  H         6.4191461957        8.9365160482        9.8244521676
  H         5.2054843938        7.6288009690        9.5956964945
  H         5.2504080341        9.0132667981        8.4646322419
  H         7.4438665201        5.5032390099        9.3948506907
  H         8.0772040042        7.0860214024       10.0467398038
  H        10.0066599903        6.9761559252        8.5626042366
  H         9.4459267156        5.3425755655        7.9331479849
      18
 i =       6, E =      -61.6024863242
  C         7.3347636628        6.8013356738        6.1406296399
  C         8.4119128053        7.5563671369        6.7442107357
  O         7.8396026939        8.3837549268        7.6793541412
  H         9.2839156191        7.9700882283        6.2264944107
  C         9.1468132299        6.3363653500        8.3081905491
  C         6.8246717991        7.5798036287        8.2039433766
  C         6.3362653315        6.7913766139        7.0782514747
  C         5.8741723438        8.3356130056        9.0766393717
  C         7.9727088923        6.4435231116        9.1552663219
  H         7.3901829527        6.2265409995        5.2117263805
  H         5.4303836494        6.1775812431        7.0980682432
  H         6.4192172786        8.9374214129        9.8234332701
  H         5.2056946306        7.6294086682        9.5963371983
  H         5.2496298818        9.0132666054        8.4646572220
  H         7.4447814031        5.5034942019        9.3958315655
  H         8.0760545114        7.0865117626       10.0465658219
  H        10.0060823986        6.9776093788        8.5625230801
  H         9.4479635771        5.3424799405        7.9363826674
      18
 i =       7, E =      -61.6027054847
  C         7.3362194181        6.7991672083        6.1419720611
  C         8.4129784825        7.5556486203        6.7452288525
  O         7.8393677407        8.3840315799        7.6790219751
  H         9.2833034923        7.9712009112        6.2256591889
  C         9.1467198877        6.3369950587        8.3078754913
  C         6.8250193677        7.5793733148        8.2043011167
  C         6.3370165945        6.7905298437        7.0784197647
  C         5.8741161887        8.3356932649        9.0764757330
  C         7.9718995548        6.4442894021        9.1548852891
  H         7.3898650409        6.2270085745        5.2112201768
  H         5.4305995875        6.1774176174        7.0981918557
  H         6.4192703906        8.9378509716        9.8229300551
  H         5.2058059949        7.6297284141        9.5967123486
  H         5.2492035106        9.0133037968        8.4647603583
  H         7.4451706019        5.5036422253        9.3962523029
  H         8.0754598910        7.0867958020       10.0464783281
  H        10.0057795413        6.9783918396        8.5624562635
  H         9.4489152249        5.3424973594        7.9379423671
      18
 i =       8, E =      -61.6062412884
  C         7.3651259421        6.7570667749        6.1665169415
  C         8.4333981543        7.5419348390        6.7644481351
  O         7.8347455768        8.3891146109        7.6723116391
  H         9.2711268011        7.9927928661        6.2098870244
  C         9.1452481357        6.3487337428        8.3021280914
  C         6.8305658565        7.5729879793        8.2100222672
  C         6.3505873221        6.7729948220        7.0826934336
  C         5.8728093684        8.3373383869        9.0736006270
  C         7.9578340806        6.4576758810        9.1489579972
  H         7.3857199111        6.2344916912        5.2030798721
  H         5.4346492025        6.1753542512        7.0997599233
  H         6.4207799331        8.9449563433        9.8142296059
  H         5.2076628192        7.6358372630        9.6039286127
  H         5.2407945190        9.0153867490        8.4684677731
  H         7.4518059131        5.5065058745        9.4031138322
  H         8.0646469815        7.0919839208       10.0450090866
  H        10.0001612526        6.9928301708        8.5608757471
  H         9.4653786435        5.3435586492        7.9654428172
      18
 i =       9, E =      -61.6064937688
  C         7.3657738298        6.7556744691        6.1669184224
  C         8.4347762610        7.5407158700        6.7655004693
  O         7.8344698627        8.3890819459        7.6716894281
  H         9.2701236089        7.9930125010        6.2104613327
  C         9.1445661085        6.3495523864        8.3005785581
  C         6.8298017884        7.5741887935        8.2093399203
  C         6.3519571808        6.7715889543        7.0831164853
  C         5.8726231104        8.3374837872        9.0741963579
  C         7.9584533239        6.4572451789        9.1493963721
  H         7.3886293424        6.2322838054        5.2053306503
  H         5.4338474144        6.1765668600        7.0985383776
  H         6.4214096101        8.9433633609        9.8155849530
  H         5.2073175536        7.6358244223        9.6041472897
  H         5.2405353705        9.0171914722        8.4709180880
  H         7.4505498199        5.5069750188        9.4011861252
  H         8.0655014932        7.0915319561       10.0453191733
  H        10.0002450340        6.9920799240        8.5603634021
  H         9.4625325868        5.3451040022        7.9619200425
      18
 i =      10, E =      -61.6068561001
  C         7.3674038430        6.7540844075        6.1682006885
  C         8.4359757380        7.5383792028        6.7674136808
  O         7.8340952232        8.3891486093        7.6707369228
  H         9.2689773833        7.9936103641        6.2111054561
  C         9.1433885656        6.3510165920        8.2983011973
  C         6.8287106581        7.5759311632        8.2079669244
  C         6.3535360266        6.7694130533        7.0838684360
  C         5.8722474936        8.3379062575        9.0750812810
  C         7.9596278505        6.4566160655        9.1500349030
  H         7.3934772675        6.2281695965        5.2085052133
  H         5.4328153167        6.1785158039        7.0966179418
  H         6.4224561876        8.9408163248        9.8177708105
  H         5.2068452462        7.6357655209        9.6044660703
  H         5.2399754645        9.0202164764        8.4750163393
  H         7.4484604479        5.5074898713        9.3981974853
  H         8.0667247965        7.0908661711       10.0458137167
  H        10.0004318926        6.9908919172        8.5594566307
  H         9.4580983740        5.3472982033        7.9560179316
      18
 i =      11, E =      -61.6070227599
  C         7.3682720983        6.7531145416        6.1687085077
  C         8.4367573168        7.5374364761        6.7684201906
  O         7.8338396309        8.3892161448        7.6703543761
  H         9.2683925989        7.9938845554        6.2114402312
  C         9.1427679826        6.3517137771        8.2971787433
  C         6.8280396578        7.5769135013        8.2073008059
  C         6.3540719104        6.7684705667        7.0842651212
  C         5.8720763610        8.3381522575        9.0754708607
  C         7.9602641482        6.4562379562        9.1503776256
  H         7.3962234273        6.2257566566        5.2102607760
  H         5.4323812338        6.1794419275        7.0956443306
  H         6.4230393919        8.9394995703        9.8189157232
  H         5.2066906430        7.6357248321        9.6045966434
  H         5.2395307444        9.0219371963        8.4772893189
  H         7.4473551386        5.5076619206        9.3966931816
  H         8.0672188116        7.0905778926       10.0460578156
  H        10.0005755186        6.9903139620        8.5588888769
  H         9.4558355912        5.3483619265        7.9527530767
      18
 i =      12, E =      -61.6071160574
  C         7.3687640459        6.7525776131        6.1691544148
  C         8.4371333118        7.5368762445        6.7690292762
  O         7.8336818261        8.3892750697        7.6701497776
  H         9.2680961938        7.9940656247        6.2116175083
  C         9.1424205529        6.3521066122        8.2965156898
  C         6.8276237508        7.5774878790        8.2068720473
  C         6.3544675730        6.7680061081        7.0844063482
  C         5.8719650101        8.3383371094        9.0757147889
  C         7.9606246981        6.4559945948        9.1505899990
  H         7.3979179687        6.2242107646        5.2112812386
  H         5.4321083863        6.1799290280        7.0950843300
  H         6.4233896654        8.9387216720        9.8195824172
  H         5.2066311453        7.6356982647        9.6046635820
  H         5.2392299939        9.0229849652        8.4786795463
  H         7.4467040592        5.5077514622        9.3958170683
  H         8.0674642815        7.0904207659       10.0461911280
  H        10.0006601294        6.9899760371        8.5585205696
  H         9.4545040713        5.3489911021        7.9507739625
      18
 i =      13, E =      -61.6096466883
  C         7.3896689343        6.7304879062        6.1846163756
  C         8.4520015459        7.5163066244        6.7929778259
  O         7.8273849823        8.3920495048        7.6628325607
  H         9.2567797504        8.0009799930        6.2185609306
  C         9.1288241280        6.3670720829        8.2706992234
  C         6.8109621516        7.6005224527        8.1902270328
  C         6.3668297232        6.7506769805        7.0902006900
  C         5.8674518295        8.3459651407        9.0850331451
  C         7.9744391536        6.4462568402        9.1586899823
  H         7.4654844249        6.1622817083        5.2527102861
  H         5.4227369150        6.1984465101        7.0735262519
  H         6.4372995318        8.9086059784        9.8453976439
  H         5.2050333433        7.6346168594        9.6071236884
  H         5.2266657327        9.0644205525        8.5339128092
  H         7.4213562092        5.5109000626        9.3620496887
  H         8.0759097458        7.0845947941       10.0511239458
  H        10.0039665730        6.9769628773        8.5434106338
  H         9.4028090939        5.3735241121        7.8726159571
      18
 i =      14, E =      -61.6098869859
  C         7.3895822970        6.7298774831        6.1840739218
  C         8.4520382249        7.5184616715        6.7934845643
  O         7.8274832233        8.3930215559        7.6640451585
  H         9.2577632661        8.0001324024        6.2186416725
  C         9.1289098978        6.3666108043        8.2699313557
  C         6.8113600096        7.5992927896        8.1915549308
  C         6.3646639465        6.7536846622        7.0882967093
  C         5.8675038638        8.3468122780        9.0846235401
  C         7.9717933683        6.4467358825        9.1569933409
  H         7.4654504650        6.1614924324        5.2534990142
  H         5.4245697246        6.1960553577        7.0749982565
  H         6.4369124378        8.9102345125        9.8435989062
  H         5.2063812233        7.6345359534        9.6068787770
  H         5.2261721743        9.0630531936        8.5333892435
  H         7.4228819125        5.5111706124        9.3639966758
  H         8.0736229701        7.0851637290       10.0503316972
  H        10.0034789418        6.9775355223        8.5426013084
  H         9.4051195077        5.3735628019        7.8747677120
      18
 i =      15, E =      -61.6100010912
  C         7.3896627862        6.7300546439        6.1848385141
  C         8.4515086207        7.5193526249        6.7935212468
  O         7.8274422039        8.3936165629        7.6647396301
  H         9.2586005500        7.9997421086        6.2186727206
  C         9.1286220658        6.3667603158        8.2698244952
  C         6.8114356057        7.5988009622        8.1920509319
  C         6.3640618420        6.7557064231        7.0867560306
  C         5.8675729792        8.3469094349        9.0844517833
  C         7.9705761185        6.4476510195        9.1559483532
  H         7.4655954578        6.1605748262        5.2537982979
  H         5.4254810077        6.1942884473        7.0759699752
  H         6.4368401379        8.9114964745        9.8425805625
  H         5.2072761190        7.6345054586        9.6068041596
  H         5.2256516918        9.0623510618        8.5329250112
  H         7.4236075961        5.5109636458        9.3652788228
  H         8.0720747081        7.0853565927       10.0495277758
  H        10.0030825342        6.9779261259        8.5420517432
  H         9.4066438016        5.3732854550        7.8759221493
      18
 i =      16, E =      -61.6100983182
  C         7.3903008007        6.7298430634        6.1848510213
  C         8.4512305543        7.5205985027        6.7935402264
  O         7.8273492916        8.3943219670        7.6653552364
  H         9.2594398129        7.9992496168        6.2188378675
  C         9.1283448432        6.3668155041        8.2696639030
  C         6.8114309589        7.5985641864        8.1924089975
  C         6.3626170716        6.7576536778        7.0855757768
  C         5.8676461235        8.3471003744        9.0842618955
  C         7.9690848582        6.4483873798        9.1548079838
  H         7.4659025020        6.1595712155        5.2546509043
  H         5.4267782347        6.1924515740        7.0770033192
  H         6.4368389566        8.9129217804        9.8414698617
  H         5.2082017761        7.6343768430        9.6068662094
  H         5.2250387325        9.0615781736        8.5324782657
  H         7.4244349079        5.5108756091        9.3665913583
  H         8.0703684373        7.0856529741       10.0486836168
  H        10.0026125223        6.9784263368        8.5414153631
  H         9.4081714146        5.3731428048        7.8771108371
      18
 i =      17, E =      -61.6101266621
  C         7.3903799677        6.7298058029        6.1852021519
  C         8.4511092986        7.5210485161        6.7935131546
  O         7.8272769030        8.3946117625        7.6654873342
  H         9.2597928646        7.9990840318        6.2189376930
  C         9.1282192828        6.3668437041        8.2696242216
  C         6.8113198035        7.5985588590        8.1923942245
  C         6.3624604686        6.7584162889        7.0849796175
  C         5.8676590412        8.3472041076        9.0842374490
  C         7.9685499589        6.4486521889        9.1543877424
  H         7.4661518674        6.1590196954        5.2550021667
  H         5.4271881701        6.1916861653        7.0773820848
  H         6.4368783819        8.9134694122        9.8410613623
  H         5.2085474951        7.6343045958        9.6069444975
  H         5.2247773858        9.0613069934        8.5323542296
  H         7.4247078685        5.5108418495        9.3670369715
  H         8.0697227572        7.0857674435       10.0483461570
  H        10.0024079307        6.9786356124        8.5411581772
  H         9.4086678731        5.3731394740        7.8774696183
      18
 i =      18, E =      -61.6104068829
  C         7.3942250767        6.7282069556        6.1884540581
  C         8.4492235880        7.5285225095        6.7933535877
  O         7.8258747811        8.3998423246        7.6671421240
  H         9.2657799875        7.9963973535        6.2208460069
  C         9.1258696562        6.3675026647        8.2689165909
  C         6.8092860340        7.5995735369        8.1916856007
  C         6.3568231219        6.7697713949        7.0769713936
  C         5.8676593907        8.3489205487        9.0838709698
  C         7.9598387822        6.4528824714        9.1474120399
  H         7.4711396225        6.1493816226        5.2626224875
  H         5.4351224844        6.1796063002        7.0833867751
  H         6.4378896151        8.9224436557        9.8344599182
  H         5.2142722116        7.6330325765        9.6085909381
  H         5.2202179157        9.0571036179        8.5308252536
  H         7.4289004618        5.5103463199        9.3739223132
  H         8.0591436578        7.0876580945       10.0427426679
  H         9.9988881135        6.9821716925        8.5367951975
  H         9.4161572867        5.3734806986        7.8825280342
      18
 i =      19, E =      -61.6105986290
  C         7.3953566182        6.7268888396        6.1893002464
  C         8.4507837211        7.5268628033        6.7942897276
  O         7.8247359276        8.4008164179        7.6645474445
  H         9.2656907732        7.9966704660        6.2221911968
  C         9.1247019299        6.3689047572        8.2675269870
  C         6.8079697608        7.6021987565        8.1898017585
  C         6.3582932086        6.7664959195        7.0784767415
  C         5.8671521561        8.3491996436        9.0847360950
  C         7.9604574828        6.4525060834        9.1476474103
  H         7.4750370917        6.1459668222        5.2659923755
  H         5.4351543750        6.1811010849        7.0817688667
  H         6.4390667012        8.9208759717        9.8357987945
  H         5.2137092899        7.6328253878        9.6098352345
  H         5.2198187202        9.0587749041        8.5332373431
  H         7.4271518671        5.5110079298        9.3709466317
  H         8.0608944525        7.0872092079       10.0432620195
  H         9.9986397456        6.9819175957        8.5368103770
  H         9.4120508732        5.3754987072        7.8780731777
      18
 i =      20, E =      -61.6106477386
  C         7.3955195278        6.7266642955        6.1895865934
  C         8.4507905758        7.5265775663        6.7947026959
  O         7.8245003385        8.4010573434        7.6641707602
  H         9.2658534205        7.9967110739        6.2224609315
  C         9.1245118325        6.3692725940        8.2670834162
  C         6.8076937496        7.6025710792        8.1893588245
  C         6.3590062800        6.7663572117        7.0786994145
  C         5.8670225123        8.3493524740        9.0848886179
  C         7.9605703517        6.4526243970        9.1477709542
  H         7.4761205636        6.1448560519        5.2668084631
  H         5.4349310302        6.1810787406        7.0814512514
  H         6.4393102311        8.9204749336        9.8360337449
  H         5.2137387000        7.6328425681        9.6100011582
  H         5.2195997687        9.0592735168        8.5339699737
  H         7.4267321857        5.5110630630        9.3703295919
  H         8.0611812210        7.0870212183       10.0432896643
  H         9.9985648103        6.9817713015        8.5367304725
  H         9.4111787264        5.3759730628        7.8769371119
      18
 i =      21, E =      -61.6108052471
  C         7.3966948377        6.7258835105        6.1900418125
  C         8.4513127586        7.5258990380        6.7958151947
  O         7.8237250889        8.4019475991        7.6630986558
  H         9.2662333517        7.9966825942        6.2235293467
  C         9.1235564193        6.3704910217        8.2656484959
  C         6.8068482271        7.6042373824        8.1884646537
  C         6.3595887843        6.7651721174        7.0793994914
  C         5.8666505792        8.3497768171        9.0852195634
  C         7.9609403808        6.4526456424        9.1477945435
  H         7.4797673474        6.1410710100        5.2697141288
  H         5.4349813894        6.1813716253        7.0804670153
  H         6.4401622093        8.9191726459        9.8368065066
  H         5.2138708935        7.6328871740        9.6105243840
  H         5.2187911035        9.0610009174        8.5364796469
  H         7.4254463141        5.5113854558        9.3683116457
  H         8.0620778363        7.0865435046       10.0435668650
  H         9.9984344007        6.9813222099        8.5364260148
  H         9.4083360217        5.3775473356        7.8731185663
      18
 i =      22, E =      -61.6108400913
  C         7.3967170558        6.7257171929        6.1903526655
  C         8.4515014126        7.5258891482        6.7960175912
  O         7.8235647271        8.4021526902        7.6629574932
  H         9.2663185037        7.9966329721        6.2238022201
  C         9.1233749551        6.3707164117        8.2652831434
  C         6.8066229814        7.6045053595        8.1882313885
  C         6.3599228923        6.7651306409        7.0793204421
  C         5.8665833508        8.3499327170        9.0853214868
  C         7.9609313853        6.4526135310        9.1477905716
  H         7.4806013074        6.1401607540        5.2703460792
  H         5.4349772900        6.1813095907        7.0803144862
  H         6.4403361821        8.9189188740        9.8369460871
  H         5.2139358197        7.6328872831        9.6106000247
  H         5.2185760776        9.0613972120        8.5370512970
  H         7.4252261394        5.5114840261        9.3679195469
  H         8.0622101999        7.0864366556       10.0436099352
  H         9.9984103913        6.9812105024        8.5363181924
  H         9.4077729855        5.3779114903        7.8723097320
      18
 i =      23, E =      -61.6119589216
  C         7.4046437921        6.7190677884        6.1955481024
  C         8.4557823620        7.5246749738        6.8047990137
  O         7.8182508271        8.4098419634        7.6579689866
  H         9.2705324957        7.9953708248        6.2331269325
  C         9.1160050198        6.3795707818        8.2521688092
  C         6.7992355812        7.6155951417        8.1807896920
  C         6.3628185947        6.7617810265        7.0798753765
  C         5.8638615835        8.3549792058        9.0881745721
  C         7.9612347892        6.4523488663        9.1467072923
  H         7.5108157207        6.1074813491        5.2955320110
  H         5.4378474037        6.1802669122        7.0749293353
  H         6.4470477282        8.9100880515        9.8422491101
  H         5.2164847110        7.6329430878        9.6132464738
  H         5.2105354850        9.0760135637        8.5581907713
  H         7.4169887681        5.5143199033        9.3540133627
  H         8.0666639462        7.0823997815       10.0449642984
  H         9.9975482295        6.9770080173        8.5321936732
  H         9.3876273949        5.3907626107        7.8425670752
      18
 i =      24, E =      -61.6119808394
  C         7.4047157344        6.7193108122        6.1961613782
  C         8.4554970324        7.5246823409        6.8048620148
  O         7.8181756373        8.4098127854        7.6580612713
  H         9.2708397117        7.9954106316        6.2332339691
  C         9.1157254817        6.3797719730        8.2521168315
  C         6.7989909646        7.6158613371        8.1809736667
  C         6.3631880738        6.7624664630        7.0791281685
  C         5.8638798470        8.3550144481        9.0880809045
  C         7.9612377940        6.4526390816        9.1462836254
  H         7.5111531902        6.1069425182        5.2959194120
  H         5.4379272379        6.1797198005        7.0752002923