      18
 i =       0, E =      -61.6094620365
  C         7.3389723320        6.8216369932        6.1062125077
  C         8.2635146548        7.7429200596        6.5493534892
  O         7.7662875581        8.4201984272        7.6170861114
  H         9.2139380680        8.1028112464        6.1521130876
  C         9.3335655764        6.0972105775        8.5671201322
  C         6.6161986646        7.7918733151        7.9874396724
  C         6.2862729297        6.8340098307        7.0469720426
  C         5.8296851200        8.4002408632        9.0760156821
  C         8.2718985727        6.1616902048        9.4131167559
  H         7.4683508858        6.1498597966        5.2549361819
  H         5.4000136582        6.1970007389        7.0720131708
  H         6.4796570884        8.7413204219        9.8830224788
  H         5.1139095427        7.6703031426        9.4817058988
  H         5.2588453252        9.2566787256        8.7155143709
  H         7.5299921333        5.3674998012        9.4605622780
  H         8.2162255235        6.9416553356       10.1826741763
  H        10.1351625731        6.8427989383        8.6199052154
  H         9.4745260149        5.2556016341        7.9012246723
      18
 i =       1, E =      -61.6098152180
  C         7.3493211495        6.8153767121        6.1036533516
  C         8.2610096871        7.7479410874        6.5450457016
  O         7.7690724280        8.4120384565        7.6224763501
  H         9.2139728995        8.1008379537        6.1531104581
  C         9.3222666731        6.1049327079        8.5822564794
  C         6.6113330143        7.7945770064        7.9813917788
  C         6.2847926086        6.8337340965        7.0530247375
  C         5.8316322809        8.3919896402        9.0765028253
  C         8.2861012653        6.1644194305        9.4068254837
  H         7.4666787014        6.1516298317        5.2540169150
  H         5.4003839918        6.1970398683        7.0720879854
  H         6.4836075577        8.7468377346        9.8896133517
  H         5.1147034516        7.6682029032        9.4840158551
  H         5.2530265447        9.2626507236        8.7088411669
  H         7.5235189414        5.3651591375        9.4587662629
  H         8.2120096047        6.9462370204       10.1796380917
  H        10.1339031315        6.8462315256        8.6174975835
  H         9.4753602610        5.2495968304        7.8938516729
      18
 i =       2, E =      -61.6104489830
  C         7.3497280370        6.8151369209        6.1090173784
  C         8.2592941789        7.7491218985        6.5424468774
  O         7.7703587704        8.4095644949        7.6245173136
  H         9.2145961157        8.1005339274        6.1534503060
  C         9.3371622005        6.0999872122        8.5701531412
  C         6.6094686831        7.7961652265        7.9796558692
  C         6.2881046788        6.8318576832        7.0499874002
  C         5.8312452501        8.3959647308        9.0774671942
  C         8.2716052023        6.1625943460        9.4201065604
  H         7.4666126609        6.1505883806        5.2512212140
  H         5.3998539696        6.1968079811        7.0722805862
  H         6.4838920266        8.7480506012        9.8903954812
  H         5.1144699809        7.6663019572        9.4853880423
  H         5.2529608904        9.2612870003        8.7080766813
  H         7.5250362153        5.3684877747        9.4571559754
  H         8.2102645990        6.9476658951       10.1769015749
  H        10.1320903317        6.8475033053        8.6166056437
  H         9.4740106032        5.2538534467        7.8960199650
      18
 i =       3, E =      -61.6105083961
  C         7.3519445982        6.8103895368        6.1082095371
  C         8.2591916016        7.7521985412        6.5413870847
  O         7.7715290587        8.4072720212        7.6263712803
  H         9.2149582548        8.1000827797        6.1537609223
  C         9.3237677766        6.1001289349        8.5828405358
  C         6.6077068279        7.7977549686        7.9779585992
  C         6.2879458665        6.8300943934        7.0501965967
  C         5.8303666020        8.3973981221        9.0785831900
  C         8.2867771316        6.1607293019        9.4102914859
  H         7.4662356392        6.1513900283        5.2506236467
  H         5.4002481658        6.1970589486        7.0721187677
  H         6.4844686476        8.7497102516        9.8915274843
  H         5.1152614937        7.6653349333        9.4864919649
  H         5.2519164772        9.2612136468        8.7070067811
  H         7.5214966406        5.3674670571        9.4562308706
  H         8.2073279305        6.9522289466       10.1770870148
  H        10.1330572599        6.8509656674        8.6150695919
  H         9.4741673879        5.2526048105        7.8930879363
      18
 i =       4, E =      -61.6108655983
  C         7.3539688392        6.8101115993        6.1104440714
  C         8.2572617255        7.7522487578        6.5397514058
  O         7.7720537556        8.4060178786        7.6273687029
  H         9.2156404977        8.1001727613        6.1538545052
  C         9.3382370616        6.0981953103        8.5736638491
  C         6.6060620627        7.7985772059        7.9765475669
  C         6.2891456194        6.8296449298        7.0500533339
  C         5.8301516598        8.3980185571        9.0790635343
  C         8.2746022585        6.1601881500        9.4229246469
  H         7.4662922574        6.1508866482        5.2490420050
  H         5.3999451501        6.1968770974        7.0719945037
  H         6.4847407573        8.7506800270        9.8921167799
  H         5.1158280220        7.6648758460        9.4871822998
  H         5.2510213680        9.2614975052        8.7066399586
  H         7.5224959877        5.3697863597        9.4549646235
  H         8.2060751319        6.9522907570       10.1738406983
  H        10.1302241958        6.8505735944        8.6141991796
  H         9.4731282580        5.2550668999        7.8939992833
      18
 i =       5, E =      -61.6108937678
  C         7.3551192392        6.8070206994        6.1104004626
  C         8.2577844136        7.7542072414        6.5389621841
  O         7.7722610694        8.4048559045        7.6281179130
  H         9.2156149853        8.1000041622        6.1541451300
  C         9.3267115560        6.0980815667        8.5851642701
  C         6.6047381329        7.7998244200        7.9756964565
  C         6.2893400909        6.8285618463        7.0500843715
  C         5.8297416757        8.3987971966        9.0794406884
  C         8.2881521065        6.1584657338        9.4146551962
  H         7.4663371377        6.1511517395        5.2483341241
  H         5.4000577553        6.1969323260        7.0717056351
  H         6.4849951403        8.7517672234        9.8926102704
  H         5.1165782934        7.6644527264        9.4880117504
  H         5.2499209089        9.2618414372        8.7064564012
  H         7.5196432323        5.3688397497        9.4542713569
  H         8.2036847706        6.9557579632       10.1738537126
  H        10.1310561414        6.8532807733        8.6128762238
  H         9.4732582870        5.2539774801        7.8914679408
      18
 i =       6, E =      -61.6111436067
  C         7.3567834332        6.8066681376        6.1116699743
  C         8.2562685450        7.7541019935        6.5379844049
  O         7.7724095339        8.4042516166        7.6284904169
  H         9.2161397428        8.1002474124        6.1541741127
  C         9.3393162515        6.0962560756        8.5773929517
  C         6.6036355239        7.8003929814        7.9744716654
  C         6.2899088578        6.8282303479        7.0502546273
  C         5.8294980573        8.3993760958        9.0796893692
  C         8.2777148949        6.1578255117        9.4256348018
  H         7.4665203994        6.1508267024        5.2473430065
  H         5.3999127914        6.1968320964        7.0714738780
  H         6.4851215545        8.7524245762        9.8928381844
  H         5.1171088785        7.6642524031        9.4885561212
  H         5.2490940277        9.2621961685        8.7066170475
  H         7.5206695627        5.3708257981        9.4532567424
  H         8.2026725783        6.9556474744       10.1710583668
  H        10.1286253130        6.8528006857        8.6121386479
  H         9.4723550078        5.2561231654        7.8923141973
      18
 i =       7, E =      -61.6114002652
  C         7.3570902020        6.8056805692        6.1117189160
  C         8.2564982097        7.7546624936        6.5377530378
  O         7.7723511182        8.4040302218        7.6285524141
  H         9.2160841305        8.1002654196        6.1542733268
  C         9.3349170119        6.0961349125        8.5819222948
  C         6.6031847524        7.8008365681        7.9742056879
  C         6.2900216671        6.8278641766        7.0502117965
  C         5.8293510784        8.3996660502        9.0797262881
  C         8.2830062832        6.1570970445        9.4224865501
  H         7.4666310492        6.1508634260        5.2471095402
  H         5.3999259672        6.1968270073        7.0713192019
  H         6.4851776878        8.7527659577        9.8928987011
  H         5.1174103871        7.6641763980        9.4888539515
  H         5.2486312022        9.2623957085        8.7067675476
  H         7.5196271195        5.3704358811        9.4530253292
  H         8.2017759508        6.9569087703       10.1710591592
  H        10.1289559533        6.8537862845        8.6116324878
  H         9.4724049391        5.2557030507        7.8913587083
      18
 i =       8, E =      -61.6116194384
  C         7.3671299520        6.7931388598        6.1164740061
  C         8.2533039204        7.7601174910        6.5316488618
  O         7.7713420164        8.4004045635        7.6293443663
  H         9.2171404304        8.1020347579        6.1554209339
  C         9.3392702791        6.0863993210        8.6005809072
  C         6.5937780033        7.8081669677        7.9658335214
  C         6.2929437688        6.8225683210        7.0508265040
  C         5.8265645376        8.4054366031        9.0806446034
  C         8.2987396192        6.1456158021        9.4339930745
  H         7.4692937876        6.1498711109        5.2412586311
  H         5.3995725408        6.1963446204        7.0681824120
  H         6.4861909537        8.7588833500        9.8936925529
  H         5.1231361302        7.6630427506        9.4943840198
  H         5.2395082778        9.2667942108        8.7108121542
  H         7.5133202601        5.3748291351        9.4464021052
  H         8.1876247222        6.9695083194       10.1586513829
  H        10.1218493098        6.8618139814        8.6028460083
  H         9.4690465349        5.2606960875        7.8849438099
      18
 i =       9, E =      -61.6117784884
  C         7.3669880021        6.7939420877        6.1167373529
  C         8.2531221348        7.7590776182        6.5319307116
  O         7.7708387225        8.4012291178        7.6284004602
  H         9.2171187661        8.1023578454        6.1554182717
  C         9.3463938546        6.0858269946        8.5955068430
  C         6.5939659155        7.8079777818        7.9658004197
  C         6.2930733697        6.8226462739        7.0507415926
  C         5.8265114354        8.4054873562        9.0802114370
  C         8.2919387085        6.1459580350        9.4397734809
  H         7.4697438863        6.1496221819        5.2414105011
  H         5.3995461905        6.1961488764        7.0679210982
  H         6.4860529105        8.7590284517        9.8929577367
  H         5.1234555668        7.6633529265        9.4945872531
  H         5.2389725807        9.2669314379        8.7116692310
  H         7.5142374575        5.3754775381        9.4463103895
  H         8.1874891857        6.9688769334       10.1573959318
  H        10.1207699167        6.8612602987        8.6028013708
  H         9.4687738575        5.2614769611        7.8858376882
      18
 i =      10, E =      -61.6117457961
  C         7.3662768849        6.7939718358        6.1162211336
  C         8.2539779610        7.7585176200        6.5325812382
  O         7.7699032248        8.4025496486        7.6269014261
  H         9.2166491287        8.1027798252        6.1554454281
  C         9.3409228347        6.0859129998        8.6007590761
  C         6.5941928247        7.8079817796        7.9658462657
  C         6.2929026664        6.8225961794        7.0505806689
  C         5.8263743280        8.4056380474        9.0795515617
  C         8.2978216752        6.1454926014        9.4354137836
  H         7.4705087506        6.1494335638        5.2420845630
  H         5.3996381646        6.1959263142        7.0674471733
  H         6.4859390561        8.7591917767        9.8918293356
  H         5.1239018427        7.6638139376        9.4948835412
  H         5.2380732435        9.2673198903        8.7131467025
  H         7.5133861220        5.3744344000        9.4465845202
  H         8.1867028859        6.9699529835       10.1576979700
  H        10.1215187474        6.8622392690        8.6025176756
  H         9.4690925672        5.2604866318        7.8851613890
      18
 i =      11, E =      -61.6118348632
  C         7.3663750833        6.7943902777        6.1163119624
  C         8.2537437370        7.7579730193        6.5326353086
  O         7.7694929919        8.4031339025        7.6262389197
  H         9.2165938800        8.1030981912        6.1553811302
  C         9.3466605198        6.0853421769        8.5966573418
  C         6.5940694505        7.8080515023        7.9655055623
  C         6.2928667316        6.8226661292        7.0505741481
  C         5.8262921159        8.4057643733        9.0792743426
  C         8.2923755165        6.1455878353        9.4400201476
  H         7.4709570935        6.1491455710        5.2422856327
  H         5.3996464968        6.1957779699        7.0671931256
  H         6.4859617988        8.7593095585        9.8912716401
  H         5.1241218822        7.6640107322        9.4950563770
  H         5.2375389311        9.2675794500        8.7139402828
  H         7.5142566479        5.3749631530        9.4465666045
  H         8.1865834502        6.9694511671       10.1567444703
  H        10.1206608452        6.8617206085        8.6025049750
  H         9.4688912990        5.2611699675        7.8860171740
      18
 i =      12, E =      -61.6118783028
  C         7.3662410069        6.7943411713        6.1162047048
  C         8.2539204058        7.7579262551        6.5327254293
  O         7.7692057679        8.4034849359        7.6258255012
  H         9.2164452716        8.1032622569        6.1553530175
  C         9.3448199948        6.0853580088        8.5984009963
  C         6.5939827062        7.8081962076        7.9653877939
  C         6.2928170992        6.8226478841        7.0504758248
  C         5.8262197061        8.4058587774        9.0791019150
  C         8.2943703340        6.1454016751        9.4385554246
  H         7.4712429371        6.1490066866        5.2424892434
  H         5.3996673763        6.1957001016        7.0670303984
  H         6.4860052902        8.7593676544        9.8909444302
  H         5.1242455505        7.6641223726        9.4951546278
  H         5.2372104175        9.2677652038        8.7144415469
  H         7.5140148701        5.3745997793        9.4466824067
  H         8.1863278622        6.9697859563       10.1568631485
  H        10.1209116312        6.8620009623        8.6024267555
  H         9.4690137402        5.2608443398        7.8858394930
      18
 i =      13, E =      -61.6120280870
  C         7.3646436103        6.7953975739        6.1141438369
  C         8.2555746047        7.7542728442        6.5341260079
  O         7.7582076694        8.4168838013        7.6101791664
  H         9.2118877987        8.1106594285        6.1535499280
  C         9.3475629748        6.0805956694        8.6075348565
  C         6.5887807316        7.8141842967        7.9576782476
  C         6.2908569056        6.8230391829        7.0475612818
  C         5.8231769736        8.4100242179        9.0729315621
  C         8.2986973322        6.1410611544        9.4414192362
  H         7.4829518278        6.1421227492        5.2496840103
  H         5.4001905805        6.1924502648        7.0604881761
  H         6.4883351989        8.7614125806        9.8782970615
  H         5.1289148859        7.6683655870        9.4988768694
  H         5.2239818000        9.2758102264        8.7347472415
  H         7.5163424203        5.3696811672        9.4498901871
  H         8.1793059613        6.9728324848       10.1517620788
  H        10.1198728643        6.8634969028        8.6006882421
  H         9.4706095483        5.2584160240        7.8893630354
      18
 i =      14, E =      -61.6120740443
  C         7.3659880986        6.7945789237        6.1148496531
  C         8.2541850114        7.7558846420        6.5326775339
  O         7.7585340845        8.4156563821        7.6109958962
  H         9.2121288174        8.1107899053        6.1531340155
  C         9.3513367065        6.0806342250        8.6040048939
  C         6.5870102681        7.8156272717        7.9562099865
  C         6.2908611433        6.8231097162        7.0469812398
  C         5.8226586738        8.4106748647        9.0735070671
  C         8.2945311603        6.1413914361        9.4446405334
  H         7.4832596756        6.1412435712        5.2495006813
  H         5.4001987937        6.1924003197        7.0604808004
  H         6.4892991051        8.7617527020        9.8786547800
  H         5.1289271048        7.6678466951        9.4989994905
  H         5.2236530470        9.2759397022        8.7344911842
  H         7.5171578894        5.3698855387        9.4500273763
  H         8.1793184818        6.9723116971       10.1512731490
  H        10.1193058059        6.8629029294        8.6009232365
  H         9.4707617190        5.2586366743        7.8903314811
      18
 i =      15, E =      -61.6121223642
  C         7.3665209539        6.7937034044        6.1149700622
  C         8.2538104155        7.7570861136        6.5318234334
  O         7.7585350628        8.4152068186        7.6114256369
  H         9.2120858813        8.1108581280        6.1528932543
  C         9.3476199780        6.0810169206        8.6066109688
  C         6.5859452749        7.8164885061        7.9553663475
  C         6.2907707992        6.8231927274        7.0465668932
  C         5.8224374585        8.4110234150        9.0738333451
  C         8.2979408284        6.1412635783        9.4418097415
  H         7.4835343559        6.1407046418        5.2495742711
  H         5.4002371137        6.1923604792        7.0604204233
  H         6.4898925543        8.7619520123        9.8787287465
  H         5.1289891795        7.6675548237        9.4990895873
  H         5.2233080956        9.2761369258        8.7343917647
  H         7.5168148353        5.3692250103        9.4502739223
  H         8.1790607730        6.9727855309       10.1517602964
  H        10.1198326680        6.8632762681        8.6009773412
  H         9.4711548399        5.2579225381        7.8902004764
      18
 i =      16, E =      -61.6121402190
  C         7.3673402438        6.7931915540        6.1153193503
  C         8.2528919504        7.7580582614        6.5308099247
  O         7.7584563566        8.4148730515        7.6117296057
  H         9.2121439146        8.1110693331        6.1525522144
  C         9.3503677024        6.0809581141        8.6041118481
  C         6.5847459263        7.8174257256        7.9542994803
  C         6.2906319880        6.8233568805        7.0461191231
  C         5.8221847069        8.4114112524        9.0741171166
  C         8.2949393316        6.1414095169        9.4441649565
  H         7.4839267160        6.1399317281        5.2496115700
  H         5.4002632170        6.1922946607        7.0603097680
  H         6.4905807025        8.7621235059        9.8787350868
  H         5.1290794824        7.6672754014        9.4991781557
  H         5.2228832323        9.2764230058        8.7344150639
  H         7.5175039713        5.3693074539        9.4504415057
  H         8.1790610991        6.9723826579       10.1514322942
  H        10.1194336703        6.8628275045        8.6011731817
  H         9.4713160814        5.2580290768        7.8910229105
      18
 i =      17, E =      -61.6121702511
  C         7.3674999671        6.7928745764        6.1153448053
  C         8.2527366870        7.7585264096        6.5304897376
  O         7.7583454552        8.4148399307        7.6117385635
  H         9.2120808970        8.1111491894        6.1524269331
  C         9.3487066137        6.0811093480        8.6053252664
  C         6.5843222229        7.8177934619        7.9539424010
  C         6.2905634483        6.8234189887        7.0458960892
  C         5.8220824018        8.4115680916        9.0741799069
  C         8.2964945470        6.1413349015        9.4429038205
  H         7.4841178304        6.1396295416        5.2497033926
  H         5.4002779330        6.1922601346        7.0602419605
  H         6.4908484786        8.7621856632        9.8786723642
  H         5.1291425258        7.6671859369        9.4992201577
  H         5.2226859862        9.2765443421        8.7344720790
  H         7.5173752195        5.3689741055        9.4505788874
  H         8.1789420175        6.9725773075       10.1516528393
  H        10.1196672699        6.8629837296        8.6012055185
  H         9.4715123523        5.2576788108        7.8910014145
      18
 i =      18, E =      -61.6122474443
  C         7.3710588287        6.7891939502        6.1163539303
  C         8.2483620026        7.7651063856        6.5247430208
  O         7.7561314643        8.4149188012        7.6112414255
  H         9.2112773840        8.1130265775        6.1500481966
  C         9.3473464632        6.0816800789        8.6049569506
  C         6.5770519114        7.8238303541        7.9472456290
  C         6.2892103611        6.8248442891        7.0423945299
  C         5.8204168219        8.4142312314        9.0750565564
  C         8.2965049948        6.1410829953        9.4429319509
  H         7.4876545725        6.1339858563        5.2512297153
  H         5.4004492976        6.1916137032        7.0589136071
  H         6.4954027241        8.7629009552        9.8773114337
  H         5.1302058301        7.6658785058        9.4998088170
  H         5.2192726998        9.2789542595        8.7360205345
  H         7.5194936656        5.3665839702        9.4525029083
  H         8.1781682326        6.9720911318       10.1520282665
  H        10.1197888720        6.8621297889        8.6023069521
  H         9.4737156378        5.2553519348        7.8944474969
      18
 i =      19, E =      -61.6122778066
  C         7.3700512625        6.7903458144        6.1156814031
  C         8.2487701837        7.7637800924        6.5253075642
  O         7.7546379334        8.4173074497        7.6085301543
  H         9.2105498469        8.1136909587        6.1498439709
  C         9.3486103544        6.0813076316        8.6047204835
  C         6.5776484258        7.8236279396        7.9474509915
  C         6.2887661824        6.8249438499        7.0420104362
  C         5.8203947100        8.4142197148        9.0738183627
  C         8.2955578836        6.1409485019        9.4439007598
  H         7.4886702971        6.1331955459        5.2523339788
  H         5.4004640885        6.1913795085        7.0583014940
  H         6.4953236900        8.7627647199        9.8756265488
  H         5.1309289315        7.6664930642        9.4999390631
  H         5.2185276575        9.2791976407        8.7374008375
  H         7.5198017071        5.3661286816        9.4528507345
  H         8.1778993200        6.9720618985       10.1518761340
  H        10.1195804115        6.8622200928        8.6023356330
  H         9.4739625154        5.2550121139        7.8951006412
      18
 i =      20, E =      -61.6122883672
  C         7.3698194826        6.7902917034        6.1154518304
  C         8.2488636665        7.7638398525        6.5253093344
  O         7.7543136404        8.4176678671        7.6080149953
  H         9.2103609538        8.1138608393        6.1497330317
  C         9.3477614010        6.0812972727        8.6055621225
  C         6.5775807875        7.8236324886        7.9471078697
  C         6.2887547895        6.8251194023        7.0419958811
  C         5.8203755599        8.4143133000        9.0736866486
  C         8.2964672533        6.1408404422        9.4432292749
  H         7.4889352234        6.1329688673        5.2526346636
  H         5.4004198235        6.1912885628        7.0581466822
  H         6.4953870617        8.7627388840        9.8752656730
  H         5.1310614442        7.6665702258        9.4999604514
  H         5.2183249011        9.2793235470        8.7376991691
  H         7.5197617068        5.3658644624        9.4529891906
  H         8.1778045045        6.9721566952       10.1520008722
  H        10.1197032203        6.8623330351        8.6023443378
  H         9.4740977617        5.2547593319        7.8951534986
      18
 i =      21, E =      -61.6123050369
  C         7.3695043684        6.7906617040        6.1150964933
  C         8.2485850226        7.7636820856        6.5249817309
  O         7.7532962288        8.4188437152        7.6063370505
  H         9.2098621095        8.1145443833        6.1492709693
  C         9.3488548634        6.0809647511        8.6052824652
  C         6.5771777424        7.8242071066        7.9463287365
  C         6.2883991758        6.8251839916        7.0415596276
  C         5.8202937528        8.4145360307        9.0730522578
  C         8.2956667054        6.1406337402        9.4441506811
  H         7.4898424253        6.1319979785        5.2534598982
  H         5.4004035010        6.1911102414        7.0576421406
  H         6.4957269238        8.7626231732        9.8741566792
  H         5.1314662268        7.6668254092        9.4999991340
  H         5.2176738743        9.2798144401        8.7387459648
  H         7.5202439607        5.3654265748        9.4533980861
  H         8.1776891887        6.9719052957       10.1519562694
  H        10.1195855426        6.8621857341        8.6024680923
  H         9.4743930327        5.2544247635        7.8958735297
      18
 i =      22, E =      -61.6123134580
  C         7.3694022492        6.7905776011        6.1149750382
  C         8.2486094339        7.7638019785        6.5248510491
  O         7.7530861056        8.4190629569        7.6060294937
  H         9.2097137816        8.1146797953        6.1491555433
  C         9.3481667177        6.0809583403        8.6059462090
  C         6.5770138346        7.8243243835        7.9460626843
  C         6.2883694069        6.8252662655        7.0414690727
  C         5.8202392069        8.4146225740        9.0729422174
  C         8.2964105019        6.1405459627        9.4436214354
  H         7.4900480581        6.1317716412        5.2536517929
  H         5.4003723891        6.1910475300        7.0575301583
  H         6.4958419298        8.7626149742        9.8739294735
  H         5.1315593824        7.6668625340        9.5000015617
  H         5.2175250103        9.2799254213        8.7389637434
  H         7.5202200800        5.3652055018        9.4535155754
  H         8.1776220065        6.9719656180       10.1520659683
  H        10.1196910924        6.8622581935        8.6024854455
  H         9.4745087901        5.2542187458        7.8959259970
      18
 i =      23, E =      -61.6124125222
  C         7.3683328267        6.7906207349        6.1123600995
  C         8.2453356260        7.7659752092        6.5192236424
  O         7.7456002398        8.4268206877        7.5945774036
  H         9.2054188618        8.1204302108        6.1442544363
  C         9.3519353641        6.0785888086        8.6075186695
  C         6.5707642738        7.8304454868        7.9369596909
  C         6.2857808521        6.8265512413        7.0371146765
  C         5.8185788937        8.4174992826        9.0686650379
  C         8.2952018861        6.1383350364        9.4474621035
  H         7.4976417490        6.1224843924        5.2598386575
  H         5.3997934581        6.1892787278        7.0534312876
  H         6.5003125440        8.7619032689        9.8657198969
  H         5.1346550665        7.6682203945        9.4998785603
  H         5.2121121269        9.2845939672        8.7471936171
  H         7.5239582040        5.3606303539        9.4573531386
  H         8.1766286022        6.9700661164       10.1526112460
  H        10.1195643862        6.8610712634        8.6037685148
  H         9.4775251971        5.2505376153        7.9018094551
      18
 i =      24, E =      -61.6124530344
  C         7.3684094100        6.7902445452        6.1122641815
  C         8.2453411448        7.7663507416        6.5190478087
  O         7.7456333016        8.4266466187        7.5947380042
  H         9.2053442206        8.1204540767        6.1440776731
  C         9.3496662547        6.0787635754        8.6093123262
  C         6.5705594502        7.8307183706        7.9367932323
  C         6.2856809941        6.8264805665        7.0368917151
  C         5.8185959935        8.4175908464        9.0686717825
  C         8.2973960762        6.1382188396        9.4457236364
  H         7.4977513745        6.1222434477        5.2598887602
  H         5.3998276296        6.1892583963        7.0533796328