      18
 i =       0, E =      -61.6018008343
  C         7.3150296641        6.8406939864        6.0975450153
  C         8.2935472998        7.6979282687        6.5873890827
  O         7.7946119995        8.3982539251        7.6401988230
  H         9.2387491516        8.0584508233        6.1762095310
  C         9.2879280761        6.1593194329        8.5153979096
  C         6.6739597204        7.7322732493        8.0440531159
  C         6.2983896798        6.8223448544        7.0591081387
  C         5.8431716402        8.3812509154        9.0725489304
  C         8.1975775527        6.2362752156        9.3476657851
  H         7.4411222716        6.1773142716        5.2380793482
  H         5.4141018311        6.1828576108        7.0850165661
  H         6.4593660050        8.8099471913        9.8572320439
  H         5.1450938949        7.6575721368        9.5161277441
  H         5.2534376129        9.1757739331        8.6273480686
  H         7.5075952198        5.4053882478        9.4491071099
  H         8.1667828336        6.9938811795       10.1405632706
  H        10.0976765233        6.8915848625        8.6071576872
  H         9.4805821443        5.2767642601        7.9283313655
      18
 i =       1, E =      -61.6031817107
  C         7.3359525752        6.8304267883        6.0966196635
  C         8.2885455719        7.7054505675        6.5799186083
  O         7.7994717614        8.3859785459        7.6484764774
  H         9.2386438810        8.0558281076        6.1773057013
  C         9.2703271774        6.1708311395        8.5361548474
  C         6.6660319376        7.7365004703        8.0343195408
  C         6.2958280371        6.8230761609        7.0685407340
  C         5.8460738624        8.3699644332        9.0747472793
  C         8.2186992282        6.2393546472        9.3380594674
  H         7.4380182789        6.1800683744        5.2366503414
  H         5.4139654585        6.1833115145        7.0856019900
  H         6.4642857992        8.8187280504        9.8661886676
  H         5.1463694171        7.6546719031        9.5197946814
  H         5.2447497342        9.1828370132        8.6172802827
  H         7.4987062642        5.4021895564        9.4465049454
  H         8.1605205672        7.0006140981       10.1356641798
  H        10.0954850843        6.8965666648        8.6033723780
  H         9.4817879821        5.2683275226        7.9184052063
      18
 i =       2, E =      -61.6047809931
  C         7.3368020900        6.8273912288        6.1054084161
  C         8.2872521827        7.7094841355        6.5756893216
  O         7.8013577125        8.3817975232        7.6512574128
  H         9.2391282417        8.0555226406        6.1776391116
  C         9.2918702391        6.1624596858        8.5215041545
  C         6.6621946215        7.7402018166        8.0308020518
  C         6.3010736563        6.8208855940        7.0636019829
  C         5.8452760789        8.3759226705        9.0758716090
  C         8.2002856596        6.2355062109        9.3572480250
  H         7.4378951047        6.1788643925        5.2330208892
  H         5.4130209303        6.1834195446        7.0860317836
  H         6.4644736268        8.8201491875        9.8672048260
  H         5.1459793946        7.6520802679        9.5219060278
  H         5.2447360224        9.1808317432        8.6171483929
  H         7.5005094930        5.4069913489        9.4436847317
  H         8.1579769899        7.0025594477       10.1313416583
  H        10.0927030357        6.8983270573        8.6017367189
  H         9.4790978348        5.2749261520        7.9205452550
      18
 i =       3, E =      -61.6053299657
  C         7.3419038947        6.8195791019        6.1056640189
  C         8.2862659818        7.7138681991        6.5739650041
  O         7.8034661786        8.3781764058        7.6538647259
  H         9.2403057703        8.0552853357        6.1776549863
  C         9.2745315069        6.1625122276        8.5380660359
  C         6.6592986910        7.7434604910        8.0276645413
  C         6.3005957153        6.8181759540        7.0636847781
  C         5.8436935385        8.3780755311        9.0773780649
  C         8.2208617480        6.2324330338        9.3452871377
  H         7.4372110394        6.1801070489        5.2322536772
  H         5.4136803296        6.1844726618        7.0860527476
  H         6.4650074072        8.8227028794        9.8686239607
  H         5.1473061637        7.6508331961        9.5237220972
  H         5.2430873935        9.1801921414        8.6160491744
  H         7.4954626772        5.4055133834        9.4421830644
  H         8.1536757989        7.0089876819       10.1309460301
  H        10.0935595966        6.9032444506        8.5993070899
  H         9.4790448741        5.2733901269        7.9162861726
      18
 i =       4, E =      -61.6061544268
  C         7.3454961707        6.8175886967        6.1094066311
  C         8.2840725653        7.7150540303        6.5709722106
  O         7.8043240745        8.3759941909        7.6553068280
  H         9.2411682881        8.0555386038        6.1776655378
  C         9.2932000790        6.1590321118        8.5286309982
  C         6.6560063990        7.7454888261        8.0244204930
  C         6.3026297956        6.8178966955        7.0637690047
  C         5.8433634548        8.3790253752        9.0780864524
  C         8.2071397370        6.2305449322        9.3618236045
  H         7.4373170114        6.1795075535        5.2302206076
  H         5.4130580703        6.1845586031        7.0860084401
  H         6.4652449897        8.8240657138        9.8694094350
  H         5.1481456540        7.6502260985        9.5248133291
  H         5.2415766257        9.1805240614        8.6159459010
  H         7.4962478035        5.4086157346        9.4400238498
  H         8.1516491081        7.0094845712       10.1262580021
  H        10.0896712563        6.9030826798        8.5976284805
  H         9.4771988782        5.2768530357        7.9165782415
      18
 i =       5, E =      -61.6065148836
  C         7.3483917912        6.8123795872        6.1103374296
  C         8.2845229266        7.7178500008        6.5694440242
  O         7.8049755869        8.3738952732        7.6563370261
  H         9.2416035346        8.0555072685        6.1778444033
  C         9.2799839440        6.1585757871        8.5427356866
  C         6.6536896175        7.7482744796        8.0225612818
  C         6.3029385842        6.8160513830        7.0636639194
  C         5.8426709073        8.3801467126        9.0785076014
  C         8.2240467053        6.2277203907        9.3532969679
  H         7.4373479634        6.1798688059        5.2292387550
  H         5.4132154779        6.1851728620        7.0858320510
  H         6.4653985445        8.8258717986        9.8699401130
  H         5.1494219323        7.6496299983        9.5262556358
  H         5.2396580116        9.1805979773        8.6158928788
  H         7.4922358591        5.4074720116        9.4387672232
  H         8.1480411073        7.0143501518       10.1254325306
  H        10.0901568629        6.9069242876        8.5954472824
  H         9.4770920448        5.2756619409        7.9129268613
      18
 i =       6, E =      -61.6070508507
  C         7.3513972713        6.8107487208        6.1124568219
  C         8.2826233107        7.7183362712        6.5675683688
  O         7.8053610767        8.3726564516        7.6568763768
  H         9.2424362035        8.0559394245        6.1777749661
  C         9.2950150840        6.1554968060        8.5357007813
  C         6.6514851941        7.7497592391        8.0197385486
  C         6.3040084645        6.8157267027        7.0642008570
  C         5.8422558119        8.3810408099        9.0788803487
  C         8.2133996242        6.2258663534        9.3667341970
  H         7.4376626768        6.1794327796        5.2279919262
  H         5.4128590116        6.1853346459        7.0856363948
  H         6.4654590312        8.8268971107        9.8701772106
  H         5.1503004698        7.6493369382        9.5271597101
  H         5.2381508423        9.1809933795        8.6163852409
  H         7.4928599617        5.4099553103        9.4370420171
  H         8.1462468671        7.0148292003       10.1215548885
  H        10.0870045345        6.9068601745        8.5939663453
  H         9.4755924535        5.2784769516        7.9130648219
      18
 i =       7, E =      -61.6074525693
  C         7.3522425660        6.8090363965        6.1128286555
  C         8.2829194634        7.7191286380        6.5670463234
  O         7.8054371255        8.3721463294        7.6569684269
  H         9.2425320499        8.0560025939        6.1778536818
  C         9.2904649537        6.1551521218        8.5409923979
  C         6.6506650034        7.7507716044        8.0190919190
  C         6.3042321418        6.8150668792        7.0641026031
  C         5.8420166272        8.3814484039        9.0788725631
  C         8.2195865701        6.2246859825        9.3639209755
  H         7.4378343621        6.1794432122        5.2276624400
  H         5.4128582998        6.1855210786        7.0855145681
  H         6.4654662644        8.8275257252        9.8701820756
  H         5.1508496867        7.6492046079        9.5276983264
  H         5.2372839329        9.1811166128        8.6166451580
  H         7.4914044918        5.4095514568        9.4365761151
  H         8.1448499219        7.0166026994       10.1211506162
  H        10.0871236264        6.9082618082        8.5930997042
  H         9.4755304008        5.2780898599        7.9117000382
      18
 i =       8, E =      -61.6086252370
  C         7.3736210388        6.7835550722        6.1240985993
  C         8.2795249618        7.7277763358        6.5551603440
  O         7.8073675001        8.3626539214        7.6586615377
  H         9.2473223455        8.0581832089        6.1788317638
  C         9.2984137718        6.1391045647        8.5737638817
  C         6.6342174852        7.7669835738        8.0008847064
  C         6.3105830173        6.8058851044        7.0659810781
  C         5.8376472911        8.3895249383        9.0794076587
  C         8.2469976774        6.2042247143        9.3852842421
  H         7.4415534047        6.1779082636        5.2195347804
  H         5.4118119808        6.1881051448        7.0831052889
  H         6.4650882380        8.8401606125        9.8691650927
  H         5.1620045033        7.6468407644        9.5383685698
  H         5.2198307876        9.1830605821        8.6218648108
  H         7.4774958308        5.4163031053        9.4241453084
  H         8.1201225982        7.0392646189       10.0989335843
  H        10.0741159907        6.9244635889        8.5764802025
  H         9.4686952836        5.2863650279        7.8976003844
      18
 i =       9, E =      -61.6090554386
  C         7.3733036975        6.7845303141        6.1239694731
  C         8.2793345116        7.7266180602        6.5551210025
  O         7.8065518054        8.3639757770        7.6572056604
  H         9.2470946800        8.0588459568        6.1786910209
  C         9.3103302926        6.1374147461        8.5668639036
  C         6.6340384016        7.7671152684        8.0001729475
  C         6.3108300641        6.8061068710        7.0658338241
  C         5.8374074506        8.3897960915        9.0786982743
  C         8.2369605882        6.2041011613        9.3953092219
  H         7.4426667996        6.1770393660        5.2199893235
  H         5.4115608936        6.1879498112        7.0826516473
  H         6.4651177844        8.8399642345        9.8682161478
  H         5.1624907481        7.6472587663        9.5383526579
  H         5.2185520696        9.1840817771        8.6238761990
  H         7.4790257348        5.4171716716        9.4239874500
  H         8.1202392165        7.0377069678       10.0971103413
  H        10.0725873433        6.9231925328        8.5763790566
  H         9.4681536386        5.2876191234        7.8985354104
      18
 i =      10, E =      -61.6090341398
  C         7.3722681580        6.7847488828        6.1229609664
  C         8.2804137551        7.7256469309        6.5557468108
  O         7.8052342824        8.3660405629        7.6548855763
  H         9.2464758415        8.0596270752        6.1785345060
  C         9.3021975838        6.1369365594        8.5758154997
  C         6.6341312827        7.7676359065        7.9998376429
  C         6.3106532040        6.8058124392        7.0652328899
  C         5.8370132279        8.3902766908        9.0775272843
  C         8.2470809553        6.2025628390        9.3897063319
  H         7.4443894868        6.1758925217        5.2210349565
  H         5.4115155797        6.1878684511        7.0819360818
  H         6.4651561004        8.8399687430        9.8665246125
  H         5.1634030399        7.6477963177        9.5385352988
  H         5.2163811726        9.1853912662        8.6267901198
  H         7.4776868628        5.4154184164        9.4244333802
  H         8.1191228843        7.0390077007       10.0976328628
  H        10.0737511316        6.9244404332        8.5757996599
  H         9.4686415185        5.2861177842        7.8970299912
      18
 i =      11, E =      -61.6092767610
  C         7.3724533806        6.7852507676        6.1228156797
  C         8.2800989321        7.7250148042        6.5555906632
  O         7.8046223775        8.3669395830        7.6538881994
  H         9.2463526364        8.0601505150        6.1783467208
  C         9.3115870598        6.1354771720        8.5701612957
  C         6.6336872782        7.7679584089        7.9988671405
  C         6.3106218057        6.8060235296        7.0652756577
  C         5.8368050778        8.3906215765        9.0770463319
  C         8.2389944909        6.2021415933        9.3973626710
  H         7.4453959036        6.1750236553        5.2214261039
  H         5.4114107650        6.1877726964        7.0815284229
  H         6.4652813704        8.8399858649        9.8656601744
  H         5.1638717077        7.6480198140        9.5386318991
  H         5.2151306642        9.1861896649        8.6284176533
  H         7.4790566336        5.4162377885        9.4243695847
  H         8.1190560071        7.0380182128       10.0962871595
  H        10.0724704204        6.9234541720        8.5757153347
  H         9.4681995661        5.2873287604        7.8980544270
      18
 i =      12, E =      -61.6093947380
  C         7.3722816053        6.7851808369        6.1226050113
  C         8.2803651325        7.7248995089        6.5556720092
  O         7.8042347346        8.3674739519        7.6532684112
  H         9.2461787170        8.0603862527        6.1782616960
  C         9.3088494047        6.1353577377        8.5730143417
  C         6.6335140262        7.7683067076        7.9986138804
  C         6.3105731993        6.8059439725        7.0650366701
  C         5.8366527295        8.3908223903        9.0767135034
  C         8.2422930480        6.2016458463        9.3954139554
  H         7.4459992157        6.1745511236        5.2217373356
  H         5.4114047417        6.1877390854        7.0812910395
  H         6.4653723448        8.8400835873        9.8651060184
  H         5.1641985299        7.6481278201        9.5387400085
  H         5.2143490946        9.1865835091        8.6293243858
  H         7.4786358418        5.4156649882        9.4245421076
  H         8.1186374208        7.0384893148       10.0964670813
  H        10.0728116961        6.9238552870        8.5755353095
  H         9.4683700948        5.2868802884        7.8976556997
      18
 i =      13, E =      -61.6099900606
  C         7.3717275669        6.7855339988        6.1168930752
  C         8.2837835066        7.7181164381        6.5557455682
  O         7.7898791878        8.3872030803        7.6306097973
  H         9.2414971283        8.0701061786        6.1743766383
  C         9.3161374822        6.1219165680        8.5970072422
  C         6.6240259155        7.7810278613        7.9825401396
  C         6.3091127526        6.8057595241        7.0592321749
  C         5.8305603922        8.3992403813        9.0648977083
  C         8.2570753380        6.1873028214        9.4083900332
  H         7.4701524564        6.1544862131        5.2330435623
  H         5.4107458552        6.1858821771        7.0718652407
  H         6.4693621283        8.8449713186        9.8429747300
  H         5.1775780849        7.6518876985        9.5435218016
  H         5.1826666979        9.2016190129        8.6645445661
  H         7.4797576755        5.4090116905        9.4284302625
  H         8.1060991296        7.0422744622       10.0880063130
  H        10.0689831645        6.9259049568        8.5700297854
  H         9.4691219844        5.2866009168        7.8976797081
      18
 i =      14, E =      -61.6100846725
  C         7.3740300191        6.7836496446        6.1180806339
  C         8.2820177845        7.7210983857        6.5538340856
  O         7.7903316266        8.3854566432        7.6317864306
  H         9.2417557147        8.0700660118        6.1738823184
  C         9.3252307406        6.1221052410        8.5884976804
  C         6.6212187707        7.7832869845        7.9801696829
  C         6.3089918115        6.8063088790        7.0585010695
  C         5.8295730994        8.4002199100        9.0656932903
  C         8.2467518950        6.1884896303        9.4156107284
  H         7.4708001410        6.1533415415        5.2334098117
  H         5.4108871662        6.1858572694        7.0717503209
  H         6.4706752935        8.8458377677        9.8432355072
  H         5.1778963063        7.6511019737        9.5438301152
  H         5.1822346177        9.2011885950        8.6642874893
  H         7.4813320694        5.4094957890        9.4286423333
  H         8.1064682054        7.0408416812       10.0871174254
  H        10.0677823411        6.9246237264        8.5707005880
  H         9.4690199328        5.2872499594        7.8995064484
      18
 i =      15, E =      -61.6102930335
  C         7.3750603440        6.7824306381        6.1188478516
  C         8.2812698855        7.7228237955        6.5527110766
  O         7.7902398780        8.3849423510        7.6323927975
  H         9.2417945312        8.0701242038        6.1735511855
  C         9.3162956110        6.1231047908        8.5943581246
  C         6.6196228646        7.7848023604        7.9789892850
  C         6.3088338981        6.8065134417        7.0575849508
  C         5.8292350249        8.4007195466        9.0661827525
  C         8.2548067931        6.1882323533        9.4088134560
  H         7.4714089489        6.1524335427        5.2337685824
  H         5.4110260729        6.1858574942        7.0715849780
  H         6.4714815438        8.8463306981        9.8431705937
  H         5.1781555722        7.6506200441        9.5440432895
  H         5.1816365364        9.2012172932        8.6642237509
  H         7.4803288762        5.4079455462        9.4291722545
  H         8.1060721589        7.0418915196       10.0884847074
  H        10.0691415092        6.9256042773        8.5708923164
  H         9.4696832605        5.2856178903        7.8988824716
      18
 i =      16, E =      -61.6103278942
  C         7.3765737924        6.7813416823        6.1195754276
  C         8.2800537444        7.7245667473        6.5513113216
  O         7.7900266585        8.3845473646        7.6329058396
  H         9.2418890598        8.0702847376        6.1731607962
  C         9.3226413946        6.1230268843        8.5884527236
  C         6.6176782002        7.7863228874        7.9771534273
  C         6.3085289485        6.8070949065        7.0570372367
  C         5.8288503060        8.4012709537        9.0666413857
  C         8.2475345581        6.1887307482        9.4138742004
  H         7.4722461632        6.1512724153        5.2343017198
  H         5.4111531448        6.1858033227        7.0713106913
  H         6.4724224507        8.8469014989        9.8429891753
  H         5.1785276616        7.6501129457        9.5443086797
  H         5.1808227462        9.2013087043        8.6643170727
  H         7.4817323206        5.4083232083        9.4294273803
  H         8.1063382170        7.0408049452       10.0879362738
  H        10.0682897265        6.9246219424        8.5714293489
  H         9.4696236700        5.2861341061        7.9004290942
      18
 i =      17, E =      -61.6104700586
  C         7.3768962222        6.7808745397        6.1198306282
  C         8.2797906841        7.7252828158        6.5509142654
  O         7.7898085644        8.3845876360        7.6329094993
  H         9.2418435625        8.0703819397        6.1730055406
  C         9.3187440216        6.1234316905        8.5910952955
  C         6.6170140882        7.7870125999        7.9766447768
  C         6.3084065766        6.8072178559        7.0565780673
  C         5.8286778721        8.4014992791        9.0667312789
  C         8.2511151553        6.1885967468        9.4109412854
  H         7.4726648574        6.1507476499        5.2345893460
  H         5.4112074253        6.1857816971        7.0711610298
  H         6.4728072327        8.8471044334        9.8428393917
  H         5.1787118460        7.6499364890        9.5444155151
  H         5.1804399577        9.2013927199        8.6644587164
  H         7.4813478117        5.4075918300        9.4297004341
  H         8.1061763934        7.0411832280       10.0885309081
  H        10.0688589401        6.9249920109        8.5715391208
  H         9.4699254145        5.2854007027        7.9002186077
      18
 i =      18, E =      -61.6107057355
  C         7.3841125764        6.7744705341        6.1239038885
  C         8.2735979095        7.7359576396        6.5435506974
  O         7.7858512701        8.3859566485        7.6325439470
  H         9.2414586753        8.0723305704        6.1703743533
  C         9.3137759042        6.1258425455        8.5890690979
  C         6.6053459829        7.7975893122        7.9659307351
  C         6.3060547409        6.8106582508        7.0509087405
  C         5.8258851600        8.4053981689        9.0682274172
  C         8.2504926830        6.1891638454        9.4084352258
  H         7.4802786617        6.1413109991        5.2398442411
  H         5.4119889729        6.1851525222        7.0683662981
  H         6.4791864539        8.8507525196        9.8396338223
  H         5.1822778277        7.6470659616        9.5464335823
  H         5.1733589461        9.2027612295        8.6671918560
  H         7.4842838652        5.4035239470        9.4329166265
  H         8.1058622368        7.0394110443       10.0906605193
  H        10.0694024249        6.9236906257        8.5744292691
  H         9.4718975687        5.2820759554        7.9050907036
      18
 i =      19, E =      -61.6106929321
  C         7.3823562206        6.7762906120        6.1224217578
  C         8.2744224067        7.7347495448        6.5443324240
  O         7.7830628931        8.3903298995        7.6284838818
  H         9.2401858049        8.0736838787        6.1702788936
  C         9.3202029025        6.1243498425        8.5862193059
  C         6.6055854400        7.7978819340        7.9656937660
  C         6.3052809728        6.8110684425        7.0504407751
  C         5.8256399496        8.4056892216        9.0666205053
  C         8.2457372651        6.1884103038        9.4137956065
  H         7.4825883951        6.1395125903        5.2420034136
  H         5.4117934906        6.1849015964        7.0671273451
  H         6.4793646876        8.8500822347        9.8375687292
  H         5.1832453709        7.6478311977        9.5463812543
  H         5.1716452082        9.2042137700        8.6702052049
  H         7.4856987519        5.4029829973        9.4334536364
  H         8.1063923498        7.0379825167       10.0906434966
  H        10.0689112006        6.9225493889        8.5749132827
  H         9.4718202293        5.2821177866        7.9062891820
      18
 i =      20, E =      -61.6108535551
  C         7.3821280319        6.7765894203        6.1223432925
  C         8.2741944805        7.7346533445        6.5444563536
  O         7.7824782275        8.3911505756        7.6276587396
  H         9.2400592571        8.0740694893        6.1701481310
  C         9.3150669398        6.1245307573        8.5904915500
  C         6.6054515818        7.7980968218        7.9653118172
  C         6.3052652421        6.8112312074        7.0502009254
  C         5.8254960723        8.4059097071        9.0664283295
  C         8.2510781580        6.1879461909        9.4099117994
  H         7.4831956389        6.1389296658        5.2424847779
  H         5.4117242565        6.1848182906        7.0668393754
  H         6.4794859007        8.8500126430        9.8370731277
  H         5.1835039483        7.6479299229        9.5464007761
  H         5.1711953380        9.2045123308        8.6708594012
  H         7.4850791342        5.4020007322        9.4337584919
  H         8.1062043380        7.0385166367       10.0914874312
  H        10.0697358778        6.9230914349        8.5749292615
  H         9.4721426233        5.2811835827        7.9057593846
      18
 i =      21, E =      -61.6108200021
  C         7.3818355441        6.7771644925        6.1217354095
  C         8.2739339002        7.7348391682        6.5442311881
  O         7.7805895737        8.3936305456        7.6252366453
  H         9.2393742710        8.0751708355        6.1698554429
  C         9.3201572753        6.1236294917        8.5875788379
  C         6.6044913003        7.7991973958        7.9639627968
  C         6.3047337799        6.8116389361        7.0497893849
  C         5.8251251895        8.4064511015        9.0656281214
  C         8.2465594401        6.1875531729        9.4141713737
  H         7.4852608234        6.1370133887        5.2442740855
  H         5.4116846709        6.1846301577        7.0658935818
  H         6.4799780138        8.8499825184        9.8354576057
  H         5.1844294282        7.6481969079        9.5465664062
  H         5.1695858620        9.2054153406        8.6729166233
  H         7.4863202285        5.4017798156        9.4342038064
  H         8.1064388611        7.0373515492       10.0913677390
  H        10.0691573334        6.9221851330        8.5753206899
  H         9.4720414446        5.2814073291        7.9069513369
      18
 i =      22, E =      -61.6109481091
  C         7.3817178459        6.7771987842        6.1217524438
  C         8.2738735207        7.7349903162        6.5441543192
  O         7.7801758596        8.3941257410        7.6247461420
  H         9.2392309044        8.0754227918        6.1697664778
  C         9.3162734997        6.1238283152        8.5907165919
  C         6.6042430640        7.7995512117        7.9637003402
  C         6.3047088745        6.8116747918        7.0494952419
  C         5.8249996304        8.4066027731        9.0654703343
  C         8.2505207705        6.1872784669        9.4112469884
  H         7.4857400062        6.1365262507        5.2446418433
  H         5.4116641089        6.1845782564        7.0656965345
  H         6.4801380896        8.8500181889        9.8351219721
  H         5.1846385315        7.6482220735        9.5466141819
  H         5.1692105393        9.2056112842        8.6733458356
  H         7.4858276152        5.4010518952        9.4344235225
  H         8.1062654711        7.0377506833       10.0919740937
  H        10.0697403949        6.9225969246        8.5753279862
  H         9.4722725527        5.2807262022        7.9065606238
      18
 i =      23, E =      -61.6106961095
  C         7.3826917078        6.7782479607        6.1204099842
  C         8.2693297614        7.7403698527        6.5390942392
  O         7.7659340014        8.4110036926        7.6082245466
  H         9.2346750069        8.0843042582        6.1667312633
  C         9.3267562712        6.1205417430        8.5875765497
  C         6.5932963601        7.8112117993        7.9499250744
  C         6.3016118721        6.8149195203        7.0440056081
  C         5.8209782696        8.4119382721        9.0603341306
  C         8.2416460393        6.1843399717        9.4221989956
  H         7.5033759338        6.1187748264        5.2589927796
  H         5.4115106972        6.1826701074        7.0585212843
  H         6.4858549099        8.8522732953        9.8225115638
  H         5.1927362939        7.6488319939        9.5489171837
  H         5.1548510469        9.2120491297        8.6882356168
  H         7.4908719926        5.3959955047        9.4384288574
  H         8.1058417738        7.0324569884       10.0941501293
  H        10.0682783769        6.9191550686        8.5778542253
  H         9.4725270001        5.2790186829        7.9126165992
      18
 i =      24, E =      -61.6114272562
  C         7.3826477547        6.7774903159        6.1202995108
  C         8.2695611214        7.7412587167        6.5388913775
  O         7.7657443220        8.4108713175        7.6079204966
  H         9.2344548442        8.0844508905        6.1666133238
  C         9.3169866262        6.1212122762        8.5949785362
  C         6.5928245485        7.8119153937        7.9499490573
  C         6.3013975307        6.8146466628        7.0434282985
  C         5.8208383013        8.4121246846        9.0602663121
  C         8.2513112092        6.1837905805        9.4147654012
  H         7.5036739411        6.1184942263        5.2593691183
  H         5.4116471080        6.1827110395        7.0584557669