         0        -61.612758913        -61.609462036        -61.601800834        -61.593208191        -61.589800135        -61.587632543        -61.597060887        -61.615644724        -61.639558994        -61.653661447          0.549037947          0.549037947          0.549037947          0.274518974          0.274518974          0.457209878          0.457209878          0.457209878          0.457209878
         1        -61.612758913        -61.609815218        -61.603181711        -61.595836565        -61.591897981        -61.589930565        -61.599003780        -61.620387225        -61.643892405        -61.653661447          0.554167282          0.550537439          0.521309213          0.305145971          0.287583776          0.426673950          0.461547375          0.458283490          0.471448898
         2        -61.612758913        -61.610448983        -61.604780993        -61.597526990        -61.592929874        -61.590810138        -61.600084087        -61.622314133        -61.645303307        -61.653661447          0.554524304          0.545043448          0.509295515          0.317181726          0.294835981          0.413617554          0.457908732          0.461576038          0.479649576
         3        -61.612758913        -61.610508396        -61.605329966        -61.598643628        -61.593707377        -61.591652267        -61.600923468        -61.623898683        -61.646538642        -61.653661447          0.556224550          0.543906990          0.500638192          0.332678576          0.302860836          0.398664752          0.455969732          0.469950022          0.492712500
         4        -61.612758912        -61.610865598        -61.606154427        -61.599459242        -61.594197110        -61.592156503        -61.601458743        -61.624805600        -61.647208839        -61.653661446          0.556007639          0.540263987          0.495667215          0.341976118          0.308390267          0.389940870          0.454059270          0.476548335          0.501605947
         5        -61.612758913        -61.610893768        -61.606514884        -61.600197996        -61.594693444        -61.592699061        -61.602071446        -61.625799350        -61.647895978        -61.653661446          0.556423267          0.539296125          0.491850935          0.353127818          0.315169872          0.381018222          0.452016968          0.484849436          0.512495795
         6        -61.612758912        -61.611143607        -61.607050851        -61.600732691        -61.595021825        -61.593051125        -61.602486324        -61.626437483        -61.648312228        -61.653661446          0.555686674          0.536715918          0.489607942          0.360303494          0.320007013          0.375899048          0.450548178          0.490744172          0.519718935
         7        -61.612758911        -61.611400265        -61.607452569        -61.601008232        -61.595189449        -61.593205459        -61.602705485        -61.626764547        -61.648517225        -61.653661447          0.555186048          0.536397763          0.488690329          0.364045824          0.317299689          0.378150623          0.449767093          0.493818360          0.523406016
         8        -61.612758912        -61.611619438        -61.608625237        -61.604323443        -61.597462136        -61.595091760        -61.606241288        -61.631776058        -61.650101834        -61.653661447          0.556024102          0.541777467          0.470147242          0.438150494          0.293692715          0.474193149          0.457717990          0.555778797          0.624828242
         9        -61.612758912        -61.611778488        -61.609055439        -61.604530900        -61.597681395        -61.595196733        -61.606493769        -61.632214538        -61.650430051        -61.653661446          0.555467798          0.537230067          0.472656709          0.431765779          0.299811163          0.475127835          0.458863842          0.549505613          0.616628182
        10        -61.612758912        -61.611745796        -61.609034140        -61.604673656        -61.597996293        -61.595349645        -61.606856100        -61.632888382        -61.650747377        -61.653661446          0.554190516          0.533065632          0.476673413          0.423121961          0.309249330          0.476816672          0.461808617          0.539284956          0.607594345
        11        -61.612758912        -61.611834863        -61.609276761        -61.604811487        -61.598166181        -61.595429742        -61.607022760        -61.633244197        -61.650872907        -61.653661447          0.553229566          0.530333866          0.477833014          0.419436760          0.313999990          0.477709230          0.463969094          0.533762574          0.604532536
        12        -61.612758913        -61.611878303        -61.609394738        -61.604886616        -61.598266852        -61.595478022        -61.607116057        -61.633455396        -61.650945465        -61.653661446          0.552498362          0.529405885          0.478443735          0.417584850          0.316769337          0.478249356          0.465364991          0.530554758          0.602831596
        13        -61.612758913        -61.612028087        -61.609990061        -61.606668769        -61.601750835        -61.596796707        -61.609646688        -61.640382878        -61.652346838        -61.653661446          0.528570773          0.506483815          0.497813188          0.365177325          0.429199848          0.522798212          0.534795630          0.458778550          0.581647133
        14        -61.612758913        -61.612074044        -61.610084672        -61.606906163        -61.601788083        -61.596929528        -61.609886986        -61.640524225        -61.652656328        -61.653661447          0.527340529          0.506487335          0.490093717          0.379749442          0.425130542          0.522049737          0.527483424          0.473406240          0.576390284
        15        -61.612758913        -61.612122364        -61.610293033        -61.607076501        -61.601823683        -61.597005906        -61.610001091        -61.640577164        -61.652764715        -61.653661447          0.526499851          0.506098125          0.485874226          0.389813966          0.423038083          0.521257919          0.523758739          0.483409794          0.572521792
        16        -61.612758912        -61.612140219        -61.610327894        -61.607216230        -61.601849793        -61.597084892        -61.610098318        -61.640619494        -61.652851318        -61.653661446          0.525280477          0.505844305          0.480685383          0.399990931          0.421227628          0.520089270          0.520529479          0.494767326          0.567716144
        17        -61.612758913        -61.612170251        -61.610470059        -61.607294163        -61.601871392        -61.597115732        -61.610126662        -61.640635969        -61.652880096        -61.653661447          0.524746156          0.505494356          0.479005365          0.404029362          0.420814742          0.519518028          0.519663863          0.499063495          0.565571479
        18        -61.612758913        -61.612247444        -61.610705735        -61.608024254        -61.602040053        -61.597490469        -61.610406883        -61.640701351        -61.653087539        -61.653661446          0.515544145          0.504179864          0.449610902          0.468540985          0.416417502          0.516105109          0.517234380          0.573082823          0.531977763
        19        -61.612758912        -61.612277807        -61.610692932        -61.608057185        -61.602226388        -61.597592232        -61.610598629        -61.641263455        -61.653204490        -61.653661446          0.514196058          0.498047377          0.456959281          0.458008507          0.425873323          0.515563049          0.521057440          0.553491581          0.525521917
        20        -61.612758913        -61.612288367        -61.610853555        -61.608126027        -61.602321968        -61.597616523        -61.610647739        -61.641361624        -61.653218905        -61.653661446          0.513665750          0.496814901          0.458636458          0.457162428          0.427709271          0.515755385          0.521431685          0.549758183          0.523993391
        21        -61.612758912        -61.612305037        -61.610820002        -61.608160192        -61.602454016        -61.597691882        -61.610805247        -61.641629385        -61.653256242        -61.653661447          0.511531322          0.494495510          0.462562087          0.453512589          0.433337354          0.516203029          0.522577523          0.538221068          0.518908916
        22        -61.612758913        -61.612313458        -61.610948109        -61.608212380        -61.602503407        -61.597708878        -61.610840091        -61.641678919        -61.653263439        -61.653661446          0.511049270          0.493932056          0.463396809          0.453603227          0.434320280          0.516374006          0.522541868          0.536380457          0.517759345
        23        -61.612758912        -61.612412522        -61.610696109        -61.608616387        -61.603461747        -61.598242385        -61.611958922        -61.642738996        -61.653421258        -61.653661446          0.494832754          0.488734542          0.488998066          0.452822043          0.468526068          0.523235255          0.526793626          0.477902942          0.483162008
        24        -61.612758912        -61.612453034        -61.611427256        -61.608812401        -61.603478821        -61.598255041        -61.611980839        -61.642923906        -61.653434285        -61.653661446          0.495084827          0.487297763          0.488712661          0.455578646          0.467869407          0.523467459          0.525356779          0.479173718          0.482971525
        25        -61.612758913        -61.612462872        -61.611428612        -61.608935822        -61.603496605        -61.598323405        -61.612061699        -61.642568691        -61.653468005        -61.653661447          0.494141110          0.491827286          0.482051399          0.469688468          0.464307543          0.524736252          0.515552527          0.492616444          0.481761885
        26        -61.612758912        -61.612473210        -61.611480685        -61.608968038        -61.603510138        -61.598332807        -61.612051849        -61.642677623        -61.653476500        -61.653661447          0.494222696          0.491805371          0.482133323          0.470397018          0.464569259          0.524383003          0.515231463          0.492997601          0.481377971
        27        -61.612758912        -61.612479176        -61.611503878        -61.609002091        -61.603553389        -61.598358434        -61.612065795        -61.642675763        -61.653484405        -61.653661447          0.493978387          0.491830424          0.483087452          0.471452906          0.465932041          0.524115189          0.514595370          0.492299430          0.480228504
        28        -61.612758913        -61.612484228        -61.611524192        -61.609035003        -61.603592154        -61.598382446        -61.612048894        -61.642629043        -61.653490490        -61.653661446          0.493996525          0.491906297          0.483672652          0.472685849          0.467049767          0.523373111          0.513669070          0.492729253          0.479366518
        29        -61.612758912        -61.612486302        -61.611532591        -61.609049706        -61.603606747        -61.598392436        -61.612031160        -61.642593101        -61.653493167        -61.653661447          0.494076022          0.492041307          0.483683107          0.473374736          0.467393022          0.522895623          0.513105360          0.493356584          0.479146661
        30        -61.612758912        -61.612519782        -61.611626943        -61.609351955        -61.603951581        -61.598613507        -61.611549633        -61.641325849        -61.653532991        -61.653661447          0.497398395          0.497269446          0.487577294          0.490059680          0.476830883          0.510683795          0.502155438          0.510962716          0.476932342
        31        -61.612758913        -61.612531700        -61.611720334        -61.609385198        -61.603964412        -61.598617898        -61.611542706        -61.641668864        -61.653535131        -61.653661447          0.497551954          0.497019950          0.488017317          0.489741059          0.477434458          0.510301311          0.503021611          0.507823075          0.476987449
        32        -61.612758913        -61.612538906        -61.611751903        -61.609420472        -61.604062083        -61.598654698        -61.611478493        -61.641716631        -61.653516108        -61.653661447          0.498576175          0.497152734          0.492296657          0.487558295          0.482624713          0.507303684          0.506107609          0.492481509          0.477973937
        33        -61.612758912        -61.612539946        -61.611756857        -61.609426791        -61.604069880        -61.598659220        -61.611482048        -61.641775920        -61.653524390        -61.653661446          0.498666931          0.497310443          0.492472487          0.487848774          0.482922893          0.507229046          0.505674187          0.491899083          0.478125418
        34        -61.612758912        -61.612542463        -61.611765970        -61.609443758        -61.604090667        -61.598671047        -61.611485951        -61.641686186        -61.653526441        -61.653661446          0.498939325          0.497789589          0.492993530          0.488581942          0.483767425          0.506947739          0.504164414          0.491767314          0.478597385
        35        -61.612758913        -61.612545580        -61.611778046        -61.609464023        -61.604119969        -61.598685934        -61.611480500        -61.641649248        -61.653525799        -61.653661446          0.499343887          0.498319978          0.493946361          0.489202030          0.485078962          0.506348640          0.503097053          0.490281810          0.479240980
        36        -61.612758912        -61.612546063        -61.611779812        -61.609467280        -61.604123526        -61.598688129        -61.611474823        -61.641642179        -61.653527750        -61.653661447          0.499417721          0.498382639          0.494049206          0.489367626          0.485202852          0.506180684          0.503029412          0.490599786          0.479285873
        37        -61.612758912        -61.612550696        -61.611797077        -61.609498328        -61.604165552        -61.598710093        -61.611454387        -61.641538314        -61.653526878        -61.653661446          0.500104281          0.499240354          0.495459995          0.490544754          0.487033586          0.505110409          0.501462517          0.489800835          0.480363368
        38        -61.612758913        -61.612551603        -61.611800179        -61.609504756        -61.604172463        -61.598714301        -61.611449286        -61.641516098        -61.653529209        -61.653661446          0.500241511          0.499425626          0.495641251          0.490908584          0.487285697          0.504912616          0.501041161          0.490091280          0.480605485
        39        -61.612758913        -61.612567398        -61.611853205        -61.609621086        -61.604301511        -61.598787630        -61.611317826        -61.640863470        -61.653513361        -61.653661446          0.503349163          0.503505121          0.500107294          0.497973058          0.492443827          0.500687889          0.493957306          0.496647458          0.486435978
        40        -61.612758912        -61.612568212        -61.611855388        -61.609625010        -61.604307983        -61.598790696        -61.611310143        -61.641038865        -61.653534662        -61.653661446          0.503494654          0.503561268          0.500335667          0.498007551          0.492728365          0.500388903          0.494608872          0.495858701          0.486483751
        41        -61.612758912        -61.612569224        -61.611858569        -61.609631312        -61.604318937        -61.598795276        -61.611292005        -61.641054101        -61.653539149        -61.653661446          0.503780448          0.503687304          0.500788553          0.498160518          0.493260772          0.499886261          0.495204080          0.495180902          0.486829657
        42        -61.612758913        -61.612569960        -61.611860793        -61.609636131        -61.604326759        -61.598798547        -61.611280585        -61.641060104        -61.653539474        -61.653661447          0.503990734          0.503800821          0.501097743          0.498315276          0.493640530          0.499577516          0.495484711          0.494774797          0.487153492
        43        -61.612758913        -61.612570822        -61.611863333        -61.609641827        -61.604335710        -61.598802340        -61.611269103        -61.641059690        -61.653539765        -61.653661447          0.504234979          0.503948180          0.501448191          0.498529115          0.494073490          0.499254599          0.495724713          0.494333581          0.487532478
        44        -61.612758912        -61.612571202        -61.611864417        -61.609644346        -61.604339528        -61.598803983        -61.611264909        -61.641065188        -61.653540101        -61.653661446          0.504339863          0.504018296          0.501590747          0.498630227          0.494257319          0.499130150          0.495786630          0.494222331          0.487694933
        45        -61.612758912        -61.612608581        -61.611954431        -61.609896890        -61.604765723        -61.598939268        -61.610640743        -61.640576430        -61.653507146        -61.653661446          0.522768045          0.519977525          0.528339160          0.514566932          0.519323803          0.482936929          0.503039579          0.484338441          0.522692027
        46        -61.612758912        -61.612608919        -61.611954402        -61.609900806        -61.604763889        -61.598939672        -61.610676060        -61.640738061        -61.653517652        -61.653661446          0.522782827          0.520213191          0.527670093          0.515214152          0.519158800          0.483631254          0.501989439          0.486049364          0.522432190
        47        -61.612758912        -61.612610427        -61.611952592        -61.609922560        -61.604750871        -61.598941002        -61.610911973        -61.640549616        -61.653551693        -61.653661446          0.522940388          0.521763934          0.523226020          0.519416891          0.518162539          0.488329368          0.493753865          0.503015777          0.520818081
        48        -61.612758912        -61.612610607        -61.611952853        -61.609923929        -61.604752039        -61.598941352        -61.610922981        -61.640584175        -61.653554711        -61.653661446          0.523006126          0.521787234          0.523046890          0.519538582          0.518214343          0.488551516          0.493942824          0.503631476          0.520647238
        49        -61.612758912        -61.612610822        -61.611953067        -61.609925316        -61.604753229        -61.598941595        -61.610936389        -61.640611628        -61.653557821        -61.653661447          0.523086373          0.521810186          0.522846575          0.519675361          0.518282427          0.488819431          0.494172249          0.504408568          0.520448718
