       1
 i =        1, E =       -37.2960183803
 Ni         0.0000000000       -0.0000000000        0.0000000000
       1
 i =        2, E =       -37.2960704565
 Ni        -0.0000000000       -0.0000000000       -0.0000000000
       1
 i =        3, E =       -37.2960737569
 Ni         0.0000000000        0.0000000000        0.0000000000
       1
 i =        4, E =       -37.2960737570
 Ni         0.0000000000       -0.0000000000        0.0000000000
       1
 i =        5, E =       -37.2960785651
 Ni         0.0000000000       -0.0000000000        0.0000000000
