 DBCSR| CPU Multiplication driver                                           BLAS
 DBCSR| Multrec recursion limit                                              512
 DBCSR| Multiplication stack size                                           1000
 DBCSR| Maximum elements for images                                    UNLIMITED
 DBCSR| Multiplicative factor virtual images                                   1
 DBCSR| Use multiplication densification                                       T
 DBCSR| Multiplication size stacks                                             3
 DBCSR| Use memory pool for CPU allocation                                     F
 DBCSR| Number of 3D layers                                               SINGLE
 DBCSR| Use MPI memory allocation                                              F
 DBCSR| Use RMA algorithm                                                      F
 DBCSR| Use Communication thread                                               T
 DBCSR| Communication thread load                                             87
 DBCSR| MPI: My node id                                                        0
 DBCSR| MPI: Number of nodes                                                 120
 DBCSR| OMP: Current number of threads                                         1
 DBCSR| OMP: Max number of threads                                             1
 DBCSR| Split modifier for TAS multiplication algorithm                  1.0E+00


  **** **** ******  **  PROGRAM STARTED AT               2022-06-16 09:36:05.618
 ***** ** ***  *** **   PROGRAM STARTED ON           Orion-22-71.HPC.MsState.Edu
 **    ****   ******    PROGRAM STARTED BY                                 wnw36
 ***** **    ** ** **   PROGRAM PROCESS ID                                128218
  **** **  *******  **  PROGRAM STARTED IN /work/hpc/users/wnw36/MSU-DFT-Catalys
                                           is-School/5_NEB/1_H-Diffusion/Pt/3_NE
                                           B/3-node-loose

 CP2K| version string:                                          CP2K version 9.1
 CP2K| source code revision number:                                  git:d8d7100
 CP2K| cp2kflags: omp libint fftw3 libxc parallel mpi3 scalapack max_contr=4 plu
 CP2K|            med2 spglib mkl check_diag libvori libbqb
 CP2K| is freely available from                            https://www.cp2k.org/
 CP2K| Program compiled at                          Mon May 23 16:32:41 CDT 2022
 CP2K| Program compiled on                         Orion-devel-1.HPC.MsState.Edu
 CP2K| Program compiled for                              Linux-x86-64-intel-hpc2
 CP2K| Data directory path                      /apps/contrib/cp2k/cp2k/9.1/data
 CP2K| Input file name                                                  cp2k.inp
 
 GLOBAL| Force Environment number                                              1
 GLOBAL| Basis set file name                                           BASIS_SET
 GLOBAL| Potential file name                                      GTH_POTENTIALS
 GLOBAL| MM Potential file name                                     MM_POTENTIAL
 GLOBAL| Coordinate file name                                      __STD_INPUT__
 GLOBAL| Method name                                                        CP2K
 GLOBAL| Project name                                                    Pt111-H
 GLOBAL| Run type                                                           BAND
 GLOBAL| FFT library                                                       FFTW3
 GLOBAL| Diagonalization library                                       ScaLAPACK
 GLOBAL| Orthonormality check for eigenvectors enabled                 5.000E-14
 GLOBAL| Matrix multiplication library                                 ScaLAPACK
 GLOBAL| All-to-all communication in single precision                          F
 GLOBAL| FFTs using library dependent lengths                                  F
 GLOBAL| Grid backend                                                       AUTO
 GLOBAL| Global print level                                               MEDIUM
 GLOBAL| MPI I/O enabled                                                       T
 GLOBAL| Total number of message passing processes                           120
 GLOBAL| Number of threads for this process                                    1
 GLOBAL| This output is from process                                           0
 GLOBAL| Stack size for threads created by OpenMP (OMP_STACKSIZE)        default
 GLOBAL| CPU model name                 Intel(R) Xeon(R) Gold 6148 CPU @ 2.40GHz
 GLOBAL| CPUID                                                              1003

 MEMORY| system memory details [Kb]
 MEMORY|                        rank 0           min           max       average
 MEMORY| MemTotal            196434472     196434472     196434472     196434472
 MEMORY| MemFree             159032340     159032216     161007372     160250886
 MEMORY| Buffers                  1160            16          2096          1090
 MEMORY| Cached               21829092      16739024      21829092      19735149
 MEMORY| Slab                  3682044       3142232       6919040       4581105
 MEMORY| SReclaimable           548312        235232       1192352        658632
 MEMORY| MemLikelyFree       181410904     178644456     181882032     180645758


 *** Fundamental physical constants (SI units) ***

 *** Literature: B. J. Mohr and B. N. Taylor,
 ***             CODATA recommended values of the fundamental physical
 ***             constants: 2006, Web Version 5.1
 ***             http://physics.nist.gov/constants

 Speed of light in vacuum [m/s]                             2.99792458000000E+08
 Magnetic constant or permeability of vacuum [N/A**2]       1.25663706143592E-06
 Electric constant or permittivity of vacuum [F/m]          8.85418781762039E-12
 Planck constant (h) [J*s]                                  6.62606896000000E-34
 Planck constant (h-bar) [J*s]                              1.05457162825177E-34
 Elementary charge [C]                                      1.60217648700000E-19
 Electron mass [kg]                                         9.10938215000000E-31
 Electron g factor [ ]                                     -2.00231930436220E+00
 Proton mass [kg]                                           1.67262163700000E-27
 Fine-structure constant                                    7.29735253760000E-03
 Rydberg constant [1/m]                                     1.09737315685270E+07
 Avogadro constant [1/mol]                                  6.02214179000000E+23
 Boltzmann constant [J/K]                                   1.38065040000000E-23
 Atomic mass unit [kg]                                      1.66053878200000E-27
 Bohr radius [m]                                            5.29177208590000E-11

 *** Conversion factors ***

 [u] -> [a.u.]                                              1.82288848426455E+03
 [Angstrom] -> [Bohr] = [a.u.]                              1.88972613288564E+00
 [a.u.] = [Bohr] -> [Angstrom]                              5.29177208590000E-01
 [a.u.] -> [s]                                              2.41888432650478E-17
 [a.u.] -> [fs]                                             2.41888432650478E-02
 [a.u.] -> [J]                                              4.35974393937059E-18
 [a.u.] -> [N]                                              8.23872205491840E-08
 [a.u.] -> [K]                                              3.15774647902944E+05
 [a.u.] -> [kJ/mol]                                         2.62549961709828E+03
 [a.u.] -> [kcal/mol]                                       6.27509468713739E+02
 [a.u.] -> [Pa]                                             2.94210107994716E+13
 [a.u.] -> [bar]                                            2.94210107994716E+08
 [a.u.] -> [atm]                                            2.90362800883016E+08
 [a.u.] -> [eV]                                             2.72113838565563E+01
 [a.u.] -> [Hz]                                             6.57968392072181E+15
 [a.u.] -> [1/cm] (wave numbers)                            2.19474631370540E+05
 [a.u./Bohr**2] -> [1/cm]                                   5.14048714338585E+03
 

 CELL_TOP| Volume [angstrom^3]:                                      1598.805915
 CELL_TOP| Vector a [angstrom    11.248     0.000     0.000   |a| =    11.248004
 CELL_TOP| Vector b [angstrom     5.624     9.741     0.000   |b| =    11.248004
 CELL_TOP| Vector c [angstrom     0.000     0.000    14.592   |c| =    14.591978
 CELL_TOP| Angle (b,c), alpha [degree]:                                90.000000
 CELL_TOP| Angle (a,c), beta  [degree]:                                90.000000
 CELL_TOP| Angle (a,b), gamma [degree]:                                60.000000
 CELL_TOP| Numerically orthorhombic:                                          NO
 
 GENERATE|  Preliminary Number of Bonds generated:                             0
 GENERATE|  Achieved consistency in connectivity generation.

 CELL| Volume [angstrom^3]:                                          1598.805915
 CELL| Vector a [angstrom]:      11.248     0.000     0.000   |a| =    11.248004
 CELL| Vector b [angstrom]:       5.624     9.741     0.000   |b| =    11.248004
 CELL| Vector c [angstrom]:       0.000     0.000    14.592   |c| =    14.591978
 CELL| Angle (b,c), alpha [degree]:                                    90.000000
 CELL| Angle (a,c), beta  [degree]:                                    90.000000
 CELL| Angle (a,b), gamma [degree]:                                    60.000000
 CELL| Numerically orthorhombic:                                              NO

 CELL_REF| Volume [angstrom^3]:                                      1598.805915
 CELL_REF| Vector a [angstrom    11.248     0.000     0.000   |a| =    11.248004
 CELL_REF| Vector b [angstrom     5.624     9.741     0.000   |b| =    11.248004
 CELL_REF| Vector c [angstrom     0.000     0.000    14.592   |c| =    14.591978
 CELL_REF| Angle (b,c), alpha [degree]:                                90.000000
 CELL_REF| Angle (a,c), beta  [degree]:                                90.000000
 CELL_REF| Angle (a,b), gamma [degree]:                                60.000000
 CELL_REF| Numerically orthorhombic:                                          NO

 *******************************************************************************
 *******************************************************************************
 **                                                                           **
 **     #####                         ##              ##                      **
 **    ##   ##            ##          ##              ##                      **
 **   ##     ##                       ##            ######                    **
 **   ##     ##  ##   ##  ##   #####  ##  ##   ####   ##    #####    #####    **
 **   ##     ##  ##   ##  ##  ##      ## ##   ##      ##   ##   ##  ##   ##   **
 **   ##  ## ##  ##   ##  ##  ##      ####     ###    ##   ######   ######    **
 **    ##  ###   ##   ##  ##  ##      ## ##      ##   ##   ##       ##        **
 **     #######   #####   ##   #####  ##  ##  ####    ##    #####   ##        **
 **           ##                                                    ##        **
 **                                                                           **
 **                                                ... make the atoms dance   **
 **                                                                           **
 **            Copyright (C) by CP2K developers group (2000-2021)             **
 **                      J. Chem. Phys. 152, 194103 (2020)                    **
 **                                                                           **
 *******************************************************************************

 DFT| Spin unrestricted (spin-polarized) Kohn-Sham calculation               UKS
 DFT| Multiplicity                                                             1
 DFT| Number of spin states                                                    2
 DFT| Charge                                                                   0
 DFT| Self-interaction correction (SIC)                                       NO
 DFT| Cutoffs: density                                              1.000000E-10
 DFT|          gradient                                             1.000000E-10
 DFT|          tau                                                  1.000000E-10
 DFT|          cutoff_smoothing_range                               0.000000E+00
 DFT| XC density smoothing                                                  NONE
 DFT| XC derivatives                                                          PW
 FUNCTIONAL| ROUTINE=NEW
 FUNCTIONAL| PADE:
 FUNCTIONAL| S. Goedecker, M. Teter and J. Hutter, Phys. Rev. B 54, 1703 (1996) 

 QS| Method:                                                                 GPW
 QS| Density plane wave grid type                        NON-SPHERICAL FULLSPACE
 QS| Number of grid levels:                                                    4
 QS| Density cutoff [a.u.]:                                                125.0
 QS| Multi grid cutoff [a.u.]: 1) grid level                               125.0
 QS|                           2) grid level                                41.7
 QS|                           3) grid level                                13.9
 QS|                           4) grid level                                 4.6
 QS| Grid level progression factor:                                          3.0
 QS| Relative density cutoff [a.u.]:                                        20.0
 QS| Interaction thresholds: eps_pgf_orb:                                1.0E-05
 QS|                         eps_filter_matrix:                          0.0E+00
 QS|                         eps_core_charge:                            1.0E-12
 QS|                         eps_rho_gspace:                             1.0E-10
 QS|                         eps_rho_rspace:                             1.0E-10
 QS|                         eps_gvg_rspace:                             1.0E-05
 QS|                         eps_ppl:                                    1.0E-02
 QS|                         eps_ppnl:                                   1.0E-07


 ATOMIC KIND INFORMATION

  1. Atomic kind: Pt                                    Number of atoms:      48

     Orbital Basis Set                                              DZV-GTH-PADE

       Number of orbital shell sets:                                           1
       Number of orbital shells:                                               7
       Number of primitive Cartesian functions:                                5
       Number of Cartesian basis functions:                                   21
       Number of spherical basis functions:                                   19
       Norm type:                                                              2

       Normalised Cartesian orbitals:

                        Set   Shell   Orbital            Exponent    Coefficient

                          1       1    5s                3.853990       1.284223
                                                         1.761529      -0.955061
                                                         0.798476      -0.354894
                                                         0.306400      -0.012294
                                                         0.090551       0.000118

                          1       2    6s                3.853990      -0.206176
                                                         1.761529       0.152739
                                                         0.798476       0.365439
                                                         0.306400      -0.073141
                                                         0.090551      -0.118192

                          1       3    7s                3.853990       0.000000
                                                         1.761529       0.000000
                                                         0.798476       0.000000
                                                         0.306400       0.000000
                                                         0.090551       0.117647

                          1       4    6px               3.853990       0.779848
                                                         1.761529      -1.320402
                                                         0.798476      -0.635344
                                                         0.306400      -0.029940
                                                         0.090551       0.000021
                          1       4    6py               3.853990       0.779848
                                                         1.761529      -1.320402
                                                         0.798476      -0.635344
                                                         0.306400      -0.029940
                                                         0.090551       0.000021
                          1       4    6pz               3.853990       0.779848
                                                         1.761529      -1.320402
                                                         0.798476      -0.635344
                                                         0.306400      -0.029940
                                                         0.090551       0.000021

                          1       5    7px               3.853990       0.000000
                                                         1.761529       0.000000
                                                         0.798476       0.000000
                                                         0.306400       0.324938
                                                         0.090551       0.000000
                          1       5    7py               3.853990       0.000000
                                                         1.761529       0.000000
                                                         0.798476       0.000000
                                                         0.306400       0.324938
                                                         0.090551       0.000000
                          1       5    7pz               3.853990       0.000000
                                                         1.761529       0.000000
                                                         0.798476       0.000000
                                                         0.306400       0.324938
                                                         0.090551       0.000000

                          1       6    7dx2              3.853990       1.322239
                                                         1.761529      -1.321302
                                                         0.798476      -0.473688
                                                         0.306400      -0.086328
                                                         0.090551      -0.003392
                          1       6    7dxy              3.853990       2.290185
                                                         1.761529      -2.288562
                                                         0.798476      -0.820452
                                                         0.306400      -0.149524
                                                         0.090551      -0.005875
                          1       6    7dxz              3.853990       2.290185
                                                         1.761529      -2.288562
                                                         0.798476      -0.820452
                                                         0.306400      -0.149524
                                                         0.090551      -0.005875
                          1       6    7dy2              3.853990       1.322239
                                                         1.761529      -1.321302
                                                         0.798476      -0.473688
                                                         0.306400      -0.086328
                                                         0.090551      -0.003392
                          1       6    7dyz              3.853990       2.290185
                                                         1.761529      -2.288562
                                                         0.798476      -0.820452
                                                         0.306400      -0.149524
                                                         0.090551      -0.005875
                          1       6    7dz2              3.853990       1.322239
                                                         1.761529      -1.321302
                                                         0.798476      -0.473688
                                                         0.306400      -0.086328
                                                         0.090551      -0.003392

                          1       7    8dx2              3.853990       0.000000
                                                         1.761529       0.000000
                                                         0.798476       1.110113
                                                         0.306400       0.000000
                                                         0.090551       0.000000
                          1       7    8dxy              3.853990       0.000000
                                                         1.761529       0.000000
                                                         0.798476       1.922772
                                                         0.306400       0.000000
                                                         0.090551       0.000000
                          1       7    8dxz              3.853990       0.000000
                                                         1.761529       0.000000
                                                         0.798476       1.922772
                                                         0.306400       0.000000
                                                         0.090551       0.000000
                          1       7    8dy2              3.853990       0.000000
                                                         1.761529       0.000000
                                                         0.798476       1.110113
                                                         0.306400       0.000000
                                                         0.090551       0.000000
                          1       7    8dyz              3.853990       0.000000
                                                         1.761529       0.000000
                                                         0.798476       1.922772
                                                         0.306400       0.000000
                                                         0.090551       0.000000
                          1       7    8dz2              3.853990       0.000000
                                                         1.761529       0.000000
                                                         0.798476       1.110113
                                                         0.306400       0.000000
                                                         0.090551       0.000000

       Atomic covalent radius [Angstrom]:                                  1.300

       Atomic van der Waals radius [Angstrom]:                             1.750

     GTH Potential information for                                  GTH-PADE-q18

       Description:                       Goedecker-Teter-Hutter pseudopotential
                                           Goedecker et al., PRB 54, 1703 (1996)
                                          Hartwigsen et al., PRB 58, 3641 (1998)
                                                      Krack, TCA 114, 145 (2005)

       Gaussian exponent of the core charge distribution:               2.000000
       Electronic configuration (s p d ...):                           3   6   9

       Parameters of the local part of the GTH pseudopotential:

                          rloc        C1          C2          C3          C4
                        0.500000    5.445832    1.156382

       Parameters of the non-local part of the GTH pseudopotential:

                   l      r(l)      h(i,j,l)

                   0    0.409942    2.994366    2.884897    1.035209
                                    2.884897   -7.448772   -2.672899
                                    1.035209   -2.672899    4.243095
                   1    0.398652   -0.225181    1.596063
                                    1.596063   -3.776974
                   2    0.367964    0.632067    2.537907
                                    2.537907   -5.755431

  2. Atomic kind: O                                     Number of atoms:       1

     Orbital Basis Set                                             DZVP-GTH-PADE

       Number of orbital shell sets:                                           2
       Number of orbital shells:                                               5
       Number of primitive Cartesian functions:                                5
       Number of Cartesian basis functions:                                   14
       Number of spherical basis functions:                                   13
       Norm type:                                                              2

       Normalised Cartesian orbitals:

                        Set   Shell   Orbital            Exponent    Coefficient

                          1       1    2s                8.304404       0.526521
                                                         2.457945      -0.055011
                                                         0.759736      -0.404341
                                                         0.213639      -0.086026

                          1       2    3s                8.304404       0.000000
                                                         2.457945       0.000000
                                                         0.759736       0.000000
                                                         0.213639       0.223960

                          1       3    3px               8.304404      -2.000758
                                                         2.457945      -1.321077
                                                         0.759736      -0.480331
                                                         0.213639      -0.078647
                          1       3    3py               8.304404      -2.000758
                                                         2.457945      -1.321077
                                                         0.759736      -0.480331
                                                         0.213639      -0.078647
                          1       3    3pz               8.304404      -2.000758
                                                         2.457945      -1.321077
                                                         0.759736      -0.480331
                                                         0.213639      -0.078647

                          1       4    4px               8.304404       0.000000
                                                         2.457945       0.000000
                                                         0.759736       0.000000
                                                         0.213639       0.207033
                          1       4    4py               8.304404       0.000000
                                                         2.457945       0.000000
                                                         0.759736       0.000000
                                                         0.213639       0.207033
                          1       4    4pz               8.304404       0.000000
                                                         2.457945       0.000000
                                                         0.759736       0.000000
                                                         0.213639       0.207033

                          2       1    3dx2              0.800000       1.113825
                          2       1    3dxy              0.800000       1.929201
                          2       1    3dxz              0.800000       1.929201
                          2       1    3dy2              0.800000       1.113825
                          2       1    3dyz              0.800000       1.929201
                          2       1    3dz2              0.800000       1.113825

       Atomic covalent radius [Angstrom]:                                  0.730

       Atomic van der Waals radius [Angstrom]:                             1.520

     GTH Potential information for                                   GTH-PADE-q6

       Description:                       Goedecker-Teter-Hutter pseudopotential
                                           Goedecker et al., PRB 54, 1703 (1996)
                                          Hartwigsen et al., PRB 58, 3641 (1998)
                                                      Krack, TCA 114, 145 (2005)

       Gaussian exponent of the core charge distribution:               8.154466
       Electronic configuration (s p d ...):                               2   4

       Parameters of the local part of the GTH pseudopotential:

                          rloc        C1          C2          C3          C4
                        0.247621  -16.580318    2.395701

       Parameters of the non-local part of the GTH pseudopotential:

                   l      r(l)      h(i,j,l)

                   0    0.221786   18.266917
                   1    0.256829


 MOLECULE KIND INFORMATION


 All atoms are their own molecule, skipping detailed information


 TOTAL NUMBERS AND MAXIMUM NUMBERS

  Total number of            - Atomic kinds:                                   2
                             - Atoms:                                         49
                             - Shell sets:                                    50
                             - Shells:                                       341
                             - Primitive Cartesian functions:                245
                             - Cartesian basis functions:                   1022
                             - Spherical basis functions:                    925

  Maximum angular momentum of- Orbital basis functions:                        2
                             - Local part of the GTH pseudopotential:          2
                             - Non-local part of the GTH pseudopotential:      4


 MODULE QUICKSTEP:  ATOMIC COORDINATES IN angstrom

 Atom  Kind  Element       X           Y           Z          Z(eff)       Mass
    1   1 Pt  78       0.000000    0.000000    5.000000      18.0000    195.0840
    2   1 Pt  78       1.406001    2.435264    5.000000      18.0000    195.0840
    3   1 Pt  78       2.812001    0.000000    5.000000      18.0000    195.0840
    4   1 Pt  78       4.218002    2.435264    5.000000      18.0000    195.0840
    5   1 Pt  78       2.812001    4.870529    5.000000      18.0000    195.0840
    6   1 Pt  78       4.218002    7.305793    5.000000      18.0000    195.0840
    7   1 Pt  78       5.624002    4.870529    5.000000      18.0000    195.0840
    8   1 Pt  78       7.030003    7.305793    5.000000      18.0000    195.0840
    9   1 Pt  78       5.624002    0.000000    5.000000      18.0000    195.0840
   10   1 Pt  78       7.030003    2.435264    5.000000      18.0000    195.0840
   11   1 Pt  78       8.436003    0.000000    5.000000      18.0000    195.0840
   12   1 Pt  78       9.842004    2.435264    5.000000      18.0000    195.0840
   13   1 Pt  78       8.436003    4.870529    5.000000      18.0000    195.0840
   14   1 Pt  78       9.842004    7.305793    5.000000      18.0000    195.0840
   15   1 Pt  78      11.248004    4.870529    5.000000      18.0000    195.0840
   16   1 Pt  78      12.654005    7.305793    5.000000      18.0000    195.0840
   17   1 Pt  78       5.625854    3.247176    7.357162      18.0000    195.0840
   18   1 Pt  78       4.215276    0.810636    7.346397      18.0000    195.0840
   19   1 Pt  78       2.811966    3.243452    7.342093      18.0000    195.0840
   20   1 Pt  78       8.439564    8.114441    7.358316      18.0000    195.0840
   21   1 Pt  78       7.018862    5.690826    7.299886      18.0000    195.0840
   22   1 Pt  78       5.625828    8.120652    7.317148      18.0000    195.0840
   23   1 Pt  78      11.248316    3.246058    7.361604      18.0000    195.0840
   24   1 Pt  78       9.849420    0.809323    7.316119      18.0000    195.0840
   25   1 Pt  78       8.435071    3.240992    7.297948      18.0000    195.0840
   26   1 Pt  78      14.058304    8.119279    7.313932      18.0000    195.0840
   27   1 Pt  78      12.660922    5.677520    7.315423      18.0000    195.0840
   28   1 Pt  78      11.243828    8.126181    7.316011      18.0000    195.0840
   29   1 Pt  78       1.408200    0.814646    7.341604      18.0000    195.0840
   30   1 Pt  78       4.214866    5.680905    7.317888      18.0000    195.0840
   31   1 Pt  78       7.023158    0.808795    7.315438      18.0000    195.0840
   32   1 Pt  78       9.849050    5.690653    7.296863      18.0000    195.0840
   33   1 Pt  78       2.814821    1.612539    9.687197      18.0000    195.0840
   34   1 Pt  78       4.189758    4.043938    9.664047      18.0000    195.0840
   35   1 Pt  78       5.603067    1.592396    9.667254      18.0000    195.0840
   36   1 Pt  78       6.960179    4.013531    9.559041      18.0000    195.0840
   37   1 Pt  78       5.581875    6.510108    9.610367      18.0000    195.0840
   38   1 Pt  78       7.023406    8.952553    9.667457      18.0000    195.0840
   39   1 Pt  78       8.437325    6.577740    9.559577      18.0000    195.0840
   40   1 Pt  78       9.850255    8.953627    9.667626      18.0000    195.0840
   41   1 Pt  78       8.436227    1.568504    9.604424      18.0000    195.0840
   42   1 Pt  78       9.915701    4.009627    9.556217      18.0000    195.0840
   43   1 Pt  78      11.266892    1.595534    9.665252      18.0000    195.0840
   44   1 Pt  78      12.680537    4.043859    9.659619      18.0000    195.0840
   45   1 Pt  78      11.290047    6.511150    9.602763      18.0000    195.0840
   46   1 Pt  78      12.660577    8.918961    9.629893      18.0000    195.0840
   47   1 Pt  78      14.061059    6.497827    9.633656      18.0000    195.0840
   48   1 Pt  78      15.457910    8.918225    9.630808      18.0000    195.0840
   49   2 O    8       8.432559    4.866255   10.751246       6.0000     15.9994




 SCF PARAMETERS         Density guess:                                    ATOMIC
                        --------------------------------------------------------
                        max_scf:                                              50
                        max_scf_history:                                       0
                        max_diis:                                              4
                        --------------------------------------------------------
                        eps_scf:                                        1.00E-05
                        eps_scf_history:                                0.00E+00
                        eps_diis:                                       1.00E-01
                        eps_eigval:                                     1.00E-05
                        --------------------------------------------------------
                        level_shift [a.u.]:                                 0.00
                        --------------------------------------------------------
                        Outer loop SCF in use 
                        No variables optimised in outer loop
                        eps_scf                                         1.00E-05
                        max_scf                                               50
                        No outer loop optimization
                        step_size                                       5.00E-01

 PW_GRID| Information for grid number                                          1
 PW_GRID| Grid distributed over                                   120 processors
 PW_GRID| Real space group dimensions                                    10   12
 PW_GRID| the grid is blocked:                                               YES
 PW_GRID| Cutoff [a.u.]                                                    125.0
 PW_GRID| spherical cutoff:                                                   NO
 PW_GRID|   Bounds   1            -54      53                Points:         108
 PW_GRID|   Bounds   2            -54      53                Points:         108
 PW_GRID|   Bounds   3            -72      71                Points:         144
 PW_GRID| Volume element (a.u.^3)  0.6424E-02     Volume (a.u.^3)     10789.2772
 PW_GRID| Grid span                                                    FULLSPACE
 PW_GRID|   Distribution                         Average         Max         Min
 PW_GRID|   G-Vectors                            13996.8       14256       12960
 PW_GRID|   G-Rays                                 129.6         132         120
 PW_GRID|   Real Space Points                    13996.8       14256       12960

 PW_GRID| Information for grid number                                          2
 PW_GRID| Number of the reference grid                                         1
 PW_GRID| Grid distributed over                                   120 processors
 PW_GRID| Real space group dimensions                                    10   12
 PW_GRID| the grid is blocked:                                                NO
 PW_GRID| Cutoff [a.u.]                                                     41.7
 PW_GRID| spherical cutoff:                                                   NO
 PW_GRID|   Bounds   1            -32      31                Points:          64
 PW_GRID|   Bounds   2            -32      31                Points:          64
 PW_GRID|   Bounds   3            -40      40                Points:          81
 PW_GRID| Volume element (a.u.^3)  0.3252E-01     Volume (a.u.^3)     10789.2772
 PW_GRID| Grid span                                                    FULLSPACE
 PW_GRID|   Distribution                         Average         Max         Min
 PW_GRID|   G-Vectors                             2764.8        8448           0
 PW_GRID|   G-Rays                                  43.2         132           0
 PW_GRID|   Real Space Points                     2764.8        3402        2430

 PW_GRID| Information for grid number                                          3
 PW_GRID| Number of the reference grid                                         1
 PW_GRID| Grid distributed over                                   120 processors
 PW_GRID| Real space group dimensions                                    10   12
 PW_GRID| the grid is blocked:                                                NO
 PW_GRID| Cutoff [a.u.]                                                     13.9
 PW_GRID| spherical cutoff:                                                   NO
 PW_GRID|   Bounds   1            -18      17                Points:          36
 PW_GRID|   Bounds   2            -18      17                Points:          36
 PW_GRID|   Bounds   3            -24      23                Points:          48
 PW_GRID| Volume element (a.u.^3)  0.1734         Volume (a.u.^3)     10789.2772
 PW_GRID| Grid span                                                    FULLSPACE
 PW_GRID|   Distribution                         Average         Max         Min
 PW_GRID|   G-Vectors                              518.4        4752           0
 PW_GRID|   G-Rays                                  14.4         132           0
 PW_GRID|   Real Space Points                      518.4         576         432

 PW_GRID| Information for grid number                                          4
 PW_GRID| Number of the reference grid                                         1
 PW_GRID| Grid distributed over                                   120 processors
 PW_GRID| Real space group dimensions                                    10   12
 PW_GRID| the grid is blocked:                                                NO
 PW_GRID| Cutoff [a.u.]                                                      4.6
 PW_GRID| spherical cutoff:                                                   NO
 PW_GRID|   Bounds   1            -12      11                Points:          24
 PW_GRID|   Bounds   2            -12      11                Points:          24
 PW_GRID|   Bounds   3            -13      13                Points:          27
 PW_GRID| Volume element (a.u.^3)  0.6938         Volume (a.u.^3)     10789.2772
 PW_GRID| Grid span                                                    FULLSPACE
 PW_GRID|   Distribution                         Average         Max         Min
 PW_GRID|   G-Vectors                              129.6        3168           0
 PW_GRID|   G-Rays                                   5.4         132           0
 PW_GRID|   Real Space Points                      129.6         162         108

 POISSON| Solver                                                        PERIODIC
 POISSON| Periodicity                                                        XYZ

 RS_GRID| Information for grid number                                          1
 RS_GRID|   Bounds   1            -54      53                Points:         108
 RS_GRID|   Bounds   2            -54      53                Points:         108
 RS_GRID|   Bounds   3            -72      71                Points:         144
 RS_GRID| Real space distribution over                                 10 groups
 RS_GRID| Real space distribution along direction                              2
 RS_GRID| Border size                                                         31
 RS_GRID| Real space distribution over                                 12 groups
 RS_GRID| Real space distribution along direction                              3
 RS_GRID| Border size                                                         31
 RS_GRID|   Distribution                         Average         Max         Min
 RS_GRID|   Planes                                  72.8          73          72
 RS_GRID|   Distribution                         Average         Max         Min
 RS_GRID|   Planes                                  74.0          74          74

 RS_GRID| Information for grid number                                          2
 RS_GRID|   Bounds   1            -32      31                Points:          64
 RS_GRID|   Bounds   2            -32      31                Points:          64
 RS_GRID|   Bounds   3            -40      40                Points:          81
 RS_GRID| Real space fully replicated
 RS_GRID| Group size                                                           1

 RS_GRID| Information for grid number                                          3
 RS_GRID|   Bounds   1            -18      17                Points:          36
 RS_GRID|   Bounds   2            -18      17                Points:          36
 RS_GRID|   Bounds   3            -24      23                Points:          48
 RS_GRID| Real space fully replicated
 RS_GRID| Group size                                                           1

 RS_GRID| Information for grid number                                          4
 RS_GRID|   Bounds   1            -12      11                Points:          24
 RS_GRID|   Bounds   2            -12      11                Points:          24
 RS_GRID|   Bounds   3            -13      13                Points:          27
 RS_GRID| Real space fully replicated
 RS_GRID| Group size                                                           1
 NEB| Replica_env Setup. START
 REPLICA| layout of the replica grid, number of groups                         5
 REPLICA| layout of the replica grid, size of each group                      24
 REPLICA| MPI process to grid (group,rank) correspondence:
  (   0 :    0,   0)  (   1 :    0,   1)  (   2 :    0,   2)  (   3 :    0,   3)
  (   4 :    0,   4)  (   5 :    0,   5)  (   6 :    0,   6)  (   7 :    0,   7)
  (   8 :    0,   8)  (   9 :    0,   9)  (  10 :    0,  10)  (  11 :    0,  11)
  (  12 :    0,  12)  (  13 :    0,  13)  (  14 :    0,  14)  (  15 :    0,  15)
  (  16 :    0,  16)  (  17 :    0,  17)  (  18 :    0,  18)  (  19 :    0,  19)
  (  20 :    0,  20)  (  21 :    0,  21)  (  22 :    0,  22)  (  23 :    0,  23)
  (  24 :    1,   0)  (  25 :    1,   1)  (  26 :    1,   2)  (  27 :    1,   3)
  (  28 :    1,   4)  (  29 :    1,   5)  (  30 :    1,   6)  (  31 :    1,   7)
  (  32 :    1,   8)  (  33 :    1,   9)  (  34 :    1,  10)  (  35 :    1,  11)
  (  36 :    1,  12)  (  37 :    1,  13)  (  38 :    1,  14)  (  39 :    1,  15)
  (  40 :    1,  16)  (  41 :    1,  17)  (  42 :    1,  18)  (  43 :    1,  19)
  (  44 :    1,  20)  (  45 :    1,  21)  (  46 :    1,  22)  (  47 :    1,  23)
  (  48 :    2,   0)  (  49 :    2,   1)  (  50 :    2,   2)  (  51 :    2,   3)
  (  52 :    2,   4)  (  53 :    2,   5)  (  54 :    2,   6)  (  55 :    2,   7)
  (  56 :    2,   8)  (  57 :    2,   9)  (  58 :    2,  10)  (  59 :    2,  11)
  (  60 :    2,  12)  (  61 :    2,  13)  (  62 :    2,  14)  (  63 :    2,  15)
  (  64 :    2,  16)  (  65 :    2,  17)  (  66 :    2,  18)  (  67 :    2,  19)
  (  68 :    2,  20)  (  69 :    2,  21)  (  70 :    2,  22)  (  71 :    2,  23)
  (  72 :    3,   0)  (  73 :    3,   1)  (  74 :    3,   2)  (  75 :    3,   3)
  (  76 :    3,   4)  (  77 :    3,   5)  (  78 :    3,   6)  (  79 :    3,   7)
  (  80 :    3,   8)  (  81 :    3,   9)  (  82 :    3,  10)  (  83 :    3,  11)
  (  84 :    3,  12)  (  85 :    3,  13)  (  86 :    3,  14)  (  87 :    3,  15)
  (  88 :    3,  16)  (  89 :    3,  17)  (  90 :    3,  18)  (  91 :    3,  19)
  (  92 :    3,  20)  (  93 :    3,  21)  (  94 :    3,  22)  (  95 :    3,  23)
  (  96 :    4,   0)  (  97 :    4,   1)  (  98 :    4,   2)  (  99 :    4,   3)
  ( 100 :    4,   4)  ( 101 :    4,   5)  ( 102 :    4,   6)  ( 103 :    4,   7)
  ( 104 :    4,   8)  ( 105 :    4,   9)  ( 106 :    4,  10)  ( 107 :    4,  11)
  ( 108 :    4,  12)  ( 109 :    4,  13)  ( 110 :    4,  14)  ( 111 :    4,  15)
  ( 112 :    4,  16)  ( 113 :    4,  17)  ( 114 :    4,  18)  ( 115 :    4,  19)
  ( 116 :    4,  20)  ( 117 :    4,  21)  ( 118 :    4,  22)  ( 119 :    4,  23)
 NEB| Replica_env Setup. END

 *******************************************************************************
 *******************************************************************************
 **                                                                           **
 **  ########     ###    ##    ## ########    Nudged Elastic Band Method      **
 **  ##     ##   ## ##   ###   ## ##     ##   String Method                   **
 **  ##     ##  ##   ##  ####  ## ##     ##                                   **
 **  ########  ##     ## ## ## ## ##     ##   Number of Images :            5 **
 **  ##     ## ######### ##  #### ##     ##   Number of Replicas:           5 **
 **  ##     ## ##     ## ##   ### ##     ##   Number of Procs/Rep:         24 **
 **  ########  ##     ## ##    ## ########                                    **
 **                                           T. Laino  2009 - 2015           **
 *******************************************************************************
 *******************************************************************************

 NEB| Building initial set of coordinates. START
 NEB| Building initial set of coordinates. END

 NEB| Computing Energies and Forces
 NEB| REPLICA Nr.    1- Energy and Forces
 NEB|                                     Total energy:       -5829.796576333964
 NEB|    ATOM                            X                Y                Z
 NEB|      Pt                      0.000000000      0.000000000      0.000000000           
 NEB|      Pt                      0.000000000      0.000000000      0.000000000           
 NEB|      Pt                      0.000000000      0.000000000      0.000000000           
 NEB|      Pt                      0.000000000      0.000000000      0.000000000           
 NEB|      Pt                      0.000000000      0.000000000      0.000000000           
 NEB|      Pt                      0.000000000      0.000000000      0.000000000           
 NEB|      Pt                      0.000000000      0.000000000      0.000000000           
 NEB|      Pt                      0.000000000      0.000000000      0.000000000           
 NEB|      Pt                      0.000000000      0.000000000      0.000000000           
 NEB|      Pt                      0.000000000      0.000000000      0.000000000           
 NEB|      Pt                      0.000000000      0.000000000      0.000000000           
 NEB|      Pt                      0.000000000      0.000000000      0.000000000           
 NEB|      Pt                      0.000000000      0.000000000      0.000000000           
 NEB|      Pt                      0.000000000      0.000000000      0.000000000           
 NEB|      Pt                      0.000000000      0.000000000      0.000000000           
 NEB|      Pt                      0.000000000      0.000000000      0.000000000           
 NEB|      Pt                      0.003343141      0.002470475      0.009662643           
 NEB|      Pt                      0.000342097     -0.000976309      0.003912849           
 NEB|      Pt                      0.000248757      0.000784680      0.002569107           
 NEB|      Pt                      0.000342381     -0.002511640      0.010296994           
 NEB|      Pt                     -0.001966868      0.000282462     -0.001253597           
 NEB|      Pt                      0.000508654     -0.001615608      0.001506521           
 NEB|      Pt                     -0.002043891      0.000784760      0.009224844           
 NEB|      Pt                     -0.000653929      0.000635906      0.000740580           
 NEB|      Pt                     -0.000810703     -0.001369827     -0.002184543           
 NEB|      Pt                      0.000304467      0.000024515      0.000869948           
 NEB|      Pt                      0.000591040     -0.000126610      0.000970619           
 NEB|      Pt                     -0.001067528      0.000117362      0.001380631           
 NEB|      Pt                     -0.000223382     -0.000905324      0.002510659           
 NEB|      Pt                     -0.000002070      0.001023024      0.001097702           
 NEB|      Pt                      0.000730104     -0.000723870      0.000665758           
 NEB|      Pt                      0.001588792      0.001626447     -0.003138397           
 NEB|      Pt                     -0.000041467     -0.001245149      0.000423460           
 NEB|      Pt                     -0.001101075     -0.000014559     -0.000869781           
 NEB|      Pt                     -0.002088672     -0.001926566     -0.000793470           
 NEB|      Pt                     -0.053885990     -0.031473418     -0.040860017           
 NEB|      Pt                     -0.001776625      0.000178261     -0.000144610           
 NEB|      Pt                      0.001226208      0.001044606     -0.001742900           
 NEB|      Pt                      0.001801864      0.062749961     -0.040568853           
 NEB|      Pt                     -0.000534058      0.002319494     -0.001648982           
 NEB|      Pt                     -0.000732835     -0.001830936     -0.000977514           
 NEB|      Pt                      0.051387895     -0.028666807     -0.039069300           
 NEB|      Pt                      0.000898887      0.000100852     -0.000508812           
 NEB|      Pt                      0.001642865     -0.001095772     -0.000995035           
 NEB|      Pt                      0.002868909      0.002022271     -0.001596091           
 NEB|      Pt                     -0.000501570     -0.000563916     -0.002834312           
 NEB|      Pt                      0.000413094     -0.000699187     -0.000888678           
 NEB|      Pt                      0.000470439     -0.000053280     -0.001511560           
 NEB|      O                       0.002442921     -0.000593354      0.098114447           
 NEB| REPLICA Nr.    2- Energy and Forces
 NEB|                                     Total energy:       -5829.759974988722
 NEB|    ATOM                            X                Y                Z
 NEB|      Pt                      0.000000000      0.000000000      0.000000000           
 NEB|      Pt                      0.000000000      0.000000000      0.000000000           
 NEB|      Pt                      0.000000000      0.000000000      0.000000000           
 NEB|      Pt                      0.000000000      0.000000000      0.000000000           
 NEB|      Pt                      0.000000000      0.000000000      0.000000000           
 NEB|      Pt                      0.000000000      0.000000000      0.000000000           
 NEB|      Pt                      0.000000000      0.000000000      0.000000000           
 NEB|      Pt                      0.000000000      0.000000000      0.000000000           
 NEB|      Pt                      0.000000000      0.000000000      0.000000000           
 NEB|      Pt                      0.000000000      0.000000000      0.000000000           
 NEB|      Pt                      0.000000000      0.000000000      0.000000000           
 NEB|      Pt                      0.000000000      0.000000000      0.000000000           
 NEB|      Pt                      0.000000000      0.000000000      0.000000000           
 NEB|      Pt                      0.000000000      0.000000000      0.000000000           
 NEB|      Pt                      0.000000000      0.000000000      0.000000000           
 NEB|      Pt                      0.000000000      0.000000000      0.000000000           
 NEB|      Pt                      0.000637043      0.004337943      0.009306097           
 NEB|      Pt                      0.000133535      0.000034781      0.002742702           
 NEB|      Pt                      0.000207737      0.001205613      0.002190146           
 NEB|      Pt                      0.000217415     -0.001092512      0.006549405           
 NEB|      Pt                     -0.001677024     -0.000435538      0.000013858           
 NEB|      Pt                      0.000819887     -0.002237837      0.001924961           
 NEB|      Pt                      0.000143683      0.002309043      0.008449993           
 NEB|      Pt                     -0.000730340      0.000239422      0.001043690           
 NEB|      Pt                     -0.000986515     -0.001328878     -0.003076666           
 NEB|      Pt                      0.000333453      0.000039188      0.000633366           
 NEB|      Pt                      0.000873291     -0.000326236      0.000318678           
 NEB|      Pt                     -0.001327284      0.000097234      0.001875382           
 NEB|      Pt                      0.000062402      0.000197690      0.001364316           
 NEB|      Pt                     -0.000003316      0.000937698      0.000800748           
 NEB|      Pt                      0.000895245     -0.000212759      0.001097263           
 NEB|      Pt                      0.001554375      0.001672883     -0.001864515           
 NEB|      Pt                      0.000204155      0.000001703     -0.000666439           
 NEB|      Pt                      0.000426190     -0.000790986     -0.002834594           
 NEB|      Pt                     -0.001252432     -0.003940497      0.001841785           
 NEB|      Pt                     -0.115159328     -0.044843563     -0.084246076           
 NEB|      Pt                     -0.000704094      0.001462432      0.000802475           
 NEB|      Pt                      0.000787321      0.000072678     -0.001456989           
 NEB|      Pt                      0.001352415      0.023047548     -0.014504981           
 NEB|      Pt                      0.000023797      0.001744562     -0.001496249           
 NEB|      Pt                     -0.000386579     -0.007926074     -0.004457064           
 NEB|      Pt                      0.106262219     -0.039172645     -0.077673615           
 NEB|      Pt                     -0.000237399     -0.002531462      0.002074196           
 NEB|      Pt                      0.000178382     -0.002415001     -0.001535435           
 NEB|      Pt                      0.001599000      0.002645358     -0.000880132           
 NEB|      Pt                     -0.001005076     -0.000874578     -0.002696607           
 NEB|      Pt                      0.000419838     -0.001019680     -0.000106717           
 NEB|      Pt                      0.000308236      0.000361489     -0.001120461           
 NEB|      O                       0.006834448      0.067233584      0.163798846           
 NEB| REPLICA Nr.    3- Energy and Forces
 NEB|                                     Total energy:       -5829.731140288173
 NEB|    ATOM                            X                Y                Z
 NEB|      Pt                      0.000000000      0.000000000      0.000000000           
 NEB|      Pt                      0.000000000      0.000000000      0.000000000           
 NEB|      Pt                      0.000000000      0.000000000      0.000000000           
 NEB|      Pt                      0.000000000      0.000000000      0.000000000           
 NEB|      Pt                      0.000000000      0.000000000      0.000000000           
 NEB|      Pt                      0.000000000      0.000000000      0.000000000           
 NEB|      Pt                      0.000000000      0.000000000      0.000000000           
 NEB|      Pt                      0.000000000      0.000000000      0.000000000           
 NEB|      Pt                      0.000000000      0.000000000      0.000000000           
 NEB|      Pt                      0.000000000      0.000000000      0.000000000           
 NEB|      Pt                      0.000000000      0.000000000      0.000000000           
 NEB|      Pt                      0.000000000      0.000000000      0.000000000           
 NEB|      Pt                      0.000000000      0.000000000      0.000000000           
 NEB|      Pt                      0.000000000      0.000000000      0.000000000           
 NEB|      Pt                      0.000000000      0.000000000      0.000000000           
 NEB|      Pt                      0.000000000      0.000000000      0.000000000           
 NEB|      Pt                     -0.001847114      0.002213528      0.007735892           
 NEB|      Pt                     -0.001070984      0.000165239      0.001202515           
 NEB|      Pt                      0.000048269      0.000107234      0.003742175           
 NEB|      Pt                      0.000990032      0.002885773      0.001477763           
 NEB|      Pt                     -0.001743967      0.001751151      0.000757556           
 NEB|      Pt                      0.000871546     -0.001470076      0.001771459           
 NEB|      Pt                      0.001469221      0.003172222      0.006359015           
 NEB|      Pt                     -0.000789965     -0.001201745      0.001217090           
 NEB|      Pt                     -0.000115018     -0.001645384     -0.003282286           
 NEB|      Pt                     -0.000104440     -0.000799182      0.001017304           
 NEB|      Pt                      0.001321874      0.000439979      0.000676950           
 NEB|      Pt                     -0.001504545      0.000001900      0.002207497           
 NEB|      Pt                      0.001393139     -0.000308552      0.000952644           
 NEB|      Pt                     -0.000747915      0.000166139      0.001285962           
 NEB|      Pt                      0.000454100     -0.002601564      0.002592326           
 NEB|      Pt                      0.001447125      0.002392592      0.000203578           
 NEB|      Pt                      0.000720061      0.001639816     -0.001194090           
 NEB|      Pt                      0.000316005     -0.000975277     -0.004694558           
 NEB|      Pt                      0.000099960     -0.001840328     -0.000470521           
 NEB|      Pt                     -0.145752172     -0.007223312     -0.102788430           
 NEB|      Pt                      0.000324141      0.002861366      0.001418712           
 NEB|      Pt                      0.000014622      0.000295641     -0.002727358           
 NEB|      Pt                      0.000227399      0.018878681     -0.010592059           
 NEB|      Pt                      0.000009768      0.000363151     -0.002302030           
 NEB|      Pt                     -0.000666458     -0.015208095     -0.011673148           
 NEB|      Pt                      0.135155332     -0.006836238     -0.093382846           
 NEB|      Pt                     -0.000757290     -0.001694050     -0.000412709           
 NEB|      Pt                     -0.000298624     -0.001966171     -0.003639377           
 NEB|      Pt                      0.000663375      0.002589695      0.000292118           
 NEB|      Pt                     -0.001808959      0.000844392     -0.002149781           
 NEB|      Pt                      0.000656487     -0.000528641     -0.001875251           
 NEB|      Pt                      0.001349339      0.000453871     -0.001144971           
 NEB|      O                       0.009519734      0.007913879      0.212002967           
 NEB| REPLICA Nr.    4- Energy and Forces
 NEB|                                     Total energy:       -5829.749447741175
 NEB|    ATOM                            X                Y                Z
 NEB|      Pt                      0.000000000      0.000000000      0.000000000           
 NEB|      Pt                      0.000000000      0.000000000      0.000000000           
 NEB|      Pt                      0.000000000      0.000000000      0.000000000           
 NEB|      Pt                      0.000000000      0.000000000      0.000000000           
 NEB|      Pt                      0.000000000      0.000000000      0.000000000           
 NEB|      Pt                      0.000000000      0.000000000      0.000000000           
 NEB|      Pt                      0.000000000      0.000000000      0.000000000           
 NEB|      Pt                      0.000000000      0.000000000      0.000000000           
 NEB|      Pt                      0.000000000      0.000000000      0.000000000           
 NEB|      Pt                      0.000000000      0.000000000      0.000000000           
 NEB|      Pt                      0.000000000      0.000000000      0.000000000           
 NEB|      Pt                      0.000000000      0.000000000      0.000000000           
 NEB|      Pt                      0.000000000      0.000000000      0.000000000           
 NEB|      Pt                      0.000000000      0.000000000      0.000000000           
 NEB|      Pt                      0.000000000      0.000000000      0.000000000           
 NEB|      Pt                      0.000000000      0.000000000      0.000000000           
 NEB|      Pt                     -0.001616066      0.002431476      0.006837341           
 NEB|      Pt                     -0.001881442     -0.000052855      0.001501019           
 NEB|      Pt                      0.000353818     -0.001221504      0.004121194           
 NEB|      Pt                      0.000782432      0.001606666     -0.000048554           
 NEB|      Pt                     -0.001361126      0.002354139      0.001744686           
 NEB|      Pt                      0.001181304     -0.000419804      0.002832580           
 NEB|      Pt                      0.001189385      0.003384917      0.005912472           
 NEB|      Pt                     -0.000687180     -0.003724322      0.002582865           
 NEB|      Pt                      0.000855636     -0.000627007     -0.002371950           
 NEB|      Pt                      0.000009079     -0.001756864      0.000550171           
 NEB|      Pt                      0.000861176      0.001456220      0.000950142           
 NEB|      Pt                     -0.002069849     -0.000635049      0.002171562           
 NEB|      Pt                      0.002401588     -0.000921056      0.001320256           
 NEB|      Pt                     -0.000998602      0.000656374      0.001455156           
 NEB|      Pt                      0.001025002     -0.003880490      0.003411258           
 NEB|      Pt                      0.001718010      0.002597901      0.001374829           
 NEB|      Pt                     -0.000189159      0.001350624     -0.000822850           
 NEB|      Pt                      0.000319619     -0.000348232     -0.004352093           
 NEB|      Pt                     -0.001635984     -0.001375468     -0.001355636           
 NEB|      Pt                     -0.109352717      0.024314200     -0.078717222           
 NEB|      Pt                      0.000424678      0.003602167     -0.000134534           
 NEB|      Pt                     -0.000837286      0.000659094     -0.003882610           
 NEB|      Pt                     -0.000548753      0.008328576     -0.004112499           
 NEB|      Pt                     -0.000721775      0.000865889     -0.004384658           
 NEB|      Pt                      0.000972518     -0.018247647     -0.017933950           
 NEB|      Pt                      0.101068056      0.020946918     -0.073319706           
 NEB|      Pt                      0.000859112     -0.002181305     -0.000775315           
 NEB|      Pt                     -0.001058843     -0.001363448     -0.003226380           
 NEB|      Pt                     -0.000023763      0.002675974      0.000446837           
 NEB|      Pt                     -0.001642028      0.000203885     -0.001528098           
 NEB|      Pt                      0.000103386      0.000390133     -0.001809556           
 NEB|      Pt                      0.001163346      0.001315521     -0.001144480           
 NEB|      O                       0.007833916     -0.043481955      0.165846789           
 NEB| REPLICA Nr.    5- Energy and Forces
 NEB|                                     Total energy:       -5829.776195542720
 NEB|    ATOM                            X                Y                Z
 NEB|      Pt                      0.000000000      0.000000000      0.000000000           
 NEB|      Pt                      0.000000000      0.000000000      0.000000000           
 NEB|      Pt                      0.000000000      0.000000000      0.000000000           
 NEB|      Pt                      0.000000000      0.000000000      0.000000000           
 NEB|      Pt                      0.000000000      0.000000000      0.000000000           
 NEB|      Pt                      0.000000000      0.000000000      0.000000000           
 NEB|      Pt                      0.000000000      0.000000000      0.000000000           
 NEB|      Pt                      0.000000000      0.000000000      0.000000000           
 NEB|      Pt                      0.000000000      0.000000000      0.000000000           
 NEB|      Pt                      0.000000000      0.000000000      0.000000000           
 NEB|      Pt                      0.000000000      0.000000000      0.000000000           
 NEB|      Pt                      0.000000000      0.000000000      0.000000000           
 NEB|      Pt                      0.000000000      0.000000000      0.000000000           
 NEB|      Pt                      0.000000000      0.000000000      0.000000000           
 NEB|      Pt                      0.000000000      0.000000000      0.000000000           
 NEB|      Pt                      0.000000000      0.000000000      0.000000000           
 NEB|      Pt                     -0.003688961      0.002297673      0.003182559           
 NEB|      Pt                     -0.002071021     -0.000703103      0.001673386           
 NEB|      Pt                      0.000152167     -0.001488330      0.002695480           
 NEB|      Pt                      0.000523161      0.001936800      0.001219578           
 NEB|      Pt                     -0.003346694      0.001707214      0.004046352           
 NEB|      Pt                      0.000943933      0.000304837      0.003813831           
 NEB|      Pt                      0.003133642      0.001952858      0.002992247           
 NEB|      Pt                     -0.000238586     -0.003874761      0.004014361           
 NEB|      Pt                      0.001144830     -0.000472491     -0.000798686           
 NEB|      Pt                     -0.000019068     -0.002670406     -0.000214310           
 NEB|      Pt                      0.001088427      0.000972120      0.000991411           
 NEB|      Pt                     -0.001198587     -0.000299501      0.003659105           
 NEB|      Pt                      0.002091394     -0.000558083      0.001411105           
 NEB|      Pt                     -0.001203733      0.001059972      0.001585777           
 NEB|      Pt                      0.001206625     -0.003610065      0.004054860           
 NEB|      Pt                      0.003811097      0.001388821      0.004287947           
 NEB|      Pt                      0.000123255      0.001293106     -0.003490650           
 NEB|      Pt                     -0.001219641     -0.000139014     -0.003132252           
 NEB|      Pt                     -0.002965368     -0.001484212     -0.001429040           
 NEB|      Pt                     -0.045266927      0.024573495     -0.038442421           
 NEB|      Pt                      0.000141828      0.001019025     -0.002339158           
 NEB|      Pt                     -0.000593865      0.000937591     -0.003679841           
 NEB|      Pt                     -0.000273121      0.000875325     -0.001075831           
 NEB|      Pt                      0.000993904      0.000753616     -0.002728601           
 NEB|      Pt                     -0.000422072     -0.048112717     -0.040449255           
 NEB|      Pt                      0.041639043      0.022416399     -0.037435384           
 NEB|      Pt                      0.002100484     -0.001543720     -0.002275556           
 NEB|      Pt                      0.000748165     -0.001165234     -0.001831739           
 NEB|      Pt                     -0.000320957      0.001999239     -0.001430319           
 NEB|      Pt                     -0.001586900      0.000129840     -0.001917824           
 NEB|      Pt                      0.001064978      0.001227164     -0.001779361           
 NEB|      Pt                      0.001054598      0.000882579     -0.001155222           
 NEB|      O                       0.004238987      0.000014956      0.105749584           

 *******************************************************************************
 BAND TYPE                     =                                          CI-NEB
 BAND TYPE OPTIMIZATION        =                                              SD
 STEP NUMBER                   =                                               0
 RMSD DISTANCE DEFINITION      =                                               T
 NUMBER OF NEB REPLICA         =                                               5
 DISTANCES REP =        0.763121        0.763121        0.763121        0.763121
 ENERGIES [au] =    -5829.796576    -5829.759975    -5829.731140    -5829.749448
                    -5829.776196
 BAND TOTAL ENERGY [au]        =                           -29148.81333489475219
 *******************************************************************************

 NEB| Computing Energies and Forces
 NEB| REPLICA Nr.    1- Energy and Forces
 NEB|                                     Total energy:       -5829.796581521936
 NEB|    ATOM                            X                Y                Z
 NEB|      Pt                      0.000000000      0.000000000      0.000000000           
 NEB|      Pt                      0.000000000      0.000000000      0.000000000           
 NEB|      Pt                      0.000000000      0.000000000      0.000000000           
 NEB|      Pt                      0.000000000      0.000000000      0.000000000           
 NEB|      Pt                      0.000000000      0.000000000      0.000000000           
 NEB|      Pt                      0.000000000      0.000000000      0.000000000           
 NEB|      Pt                      0.000000000      0.000000000      0.000000000           
 NEB|      Pt                      0.000000000      0.000000000      0.000000000           
 NEB|      Pt                      0.000000000      0.000000000      0.000000000           
 NEB|      Pt                      0.000000000      0.000000000      0.000000000           
 NEB|      Pt                      0.000000000      0.000000000      0.000000000           
 NEB|      Pt                      0.000000000      0.000000000      0.000000000           
 NEB|      Pt                      0.000000000      0.000000000      0.000000000           
 NEB|      Pt                      0.000000000      0.000000000      0.000000000           
 NEB|      Pt                      0.000000000      0.000000000      0.000000000           
 NEB|      Pt                      0.000000000      0.000000000      0.000000000           
 NEB|      Pt                      0.003340510      0.002468364      0.009657393           
 NEB|      Pt                      0.000339312     -0.000977147      0.003909194           
 NEB|      Pt                      0.000243666      0.000784035      0.002569761           
 NEB|      Pt                      0.000339014     -0.002506427      0.010293213           
 NEB|      Pt                     -0.001965465      0.000282581     -0.001255557           
 NEB|      Pt                      0.000507678     -0.001610236      0.001507372           
 NEB|      Pt                     -0.002042777      0.000781260      0.009228078           
 NEB|      Pt                     -0.000651445      0.000637904      0.000744020           
 NEB|      Pt                     -0.000809746     -0.001378106     -0.002186189           
 NEB|      Pt                      0.000304562      0.000026343      0.000871337           
 NEB|      Pt                      0.000589203     -0.000126198      0.000969248           
 NEB|      Pt                     -0.001062213      0.000117336      0.001377388           
 NEB|      Pt                     -0.000226977     -0.000906488      0.002515764           
 NEB|      Pt                     -0.000006348      0.001025809      0.001096657           
 NEB|      Pt                      0.000735670     -0.000725066      0.000666965           
 NEB|      Pt                      0.001591978      0.001622210     -0.003140776           
 NEB|      Pt                     -0.000043707     -0.001246680      0.000424752           
 NEB|      Pt                     -0.001103672     -0.000014744     -0.000868032           
 NEB|      Pt                     -0.002087084     -0.001927628     -0.000792363           
 NEB|      Pt                     -0.053878219     -0.031469148     -0.040856070           
 NEB|      Pt                     -0.001775482      0.000179002     -0.000145310           
 NEB|      Pt                      0.001224951      0.001048896     -0.001742830           
 NEB|      Pt                      0.001800164      0.062745903     -0.040560900           
 NEB|      Pt                     -0.000534982      0.002317883     -0.001650247           
 NEB|      Pt                     -0.000732353     -0.001834959     -0.000976555           
 NEB|      Pt                      0.051386146     -0.028666955     -0.039064789           
 NEB|      Pt                      0.000899786      0.000097145     -0.000509867           
 NEB|      Pt                      0.001638607     -0.001098282     -0.000997344           
 NEB|      Pt                      0.002868852      0.002025250     -0.001593387           
 NEB|      Pt                     -0.000497153     -0.000563821     -0.002832936           
 NEB|      Pt                      0.000408722     -0.000697078     -0.000889176           
 NEB|      Pt                      0.000468932     -0.000048535     -0.001513220           
 NEB|      O                       0.002446521     -0.000592947      0.098104142           
 NEB| REPLICA Nr.    2- Energy and Forces
 NEB|                                     Total energy:       -5829.806010839129
 NEB|    ATOM                            X                Y                Z
 NEB|      Pt                      0.000000000      0.000000000      0.000000000           
 NEB|      Pt                      0.000000000      0.000000000      0.000000000           
 NEB|      Pt                      0.000000000      0.000000000      0.000000000           
 NEB|      Pt                      0.000000000      0.000000000      0.000000000           
 NEB|      Pt                      0.000000000      0.000000000      0.000000000           
 NEB|      Pt                      0.000000000      0.000000000      0.000000000           
 NEB|      Pt                      0.000000000      0.000000000      0.000000000           
 NEB|      Pt                      0.000000000      0.000000000      0.000000000           
 NEB|      Pt                      0.000000000      0.000000000      0.000000000           
 NEB|      Pt                      0.000000000      0.000000000      0.000000000           
 NEB|      Pt                      0.000000000      0.000000000      0.000000000           
 NEB|      Pt                      0.000000000      0.000000000      0.000000000           
 NEB|      Pt                      0.000000000      0.000000000      0.000000000           
 NEB|      Pt                      0.000000000      0.000000000      0.000000000           
 NEB|      Pt                      0.000000000      0.000000000      0.000000000           
 NEB|      Pt                      0.000000000      0.000000000      0.000000000           
 NEB|      Pt                     -0.000872058      0.003008285      0.004721663           
 NEB|      Pt                      0.000017364     -0.000067807      0.002401505           
 NEB|      Pt                      0.000175404      0.000880178      0.001665012           
 NEB|      Pt                      0.000204582     -0.001847131      0.004841586           
 NEB|      Pt                     -0.000610233      0.000355892     -0.000796324           
 NEB|      Pt                      0.001045183     -0.001934599      0.001344461           
 NEB|      Pt                      0.001413867      0.001522716      0.004343054           
 NEB|      Pt                     -0.000468852      0.000428833      0.000513116           
 NEB|      Pt                     -0.000742536     -0.000522087     -0.002327506           
 NEB|      Pt                      0.000314644     -0.000161046      0.000527416           
[...]
 NEB|      Pt                      0.000647070     -0.000222028     -0.002646253           
 NEB|      Pt                     -0.000052148     -0.000093705     -0.002797367           
 NEB|      O                       0.003041079      0.000811187      0.098179910           
 NEB| REPLICA Nr.    2- Energy and Forces
 NEB|                                     Total energy:       -5829.829669553160
 NEB|    ATOM                            X                Y                Z
 NEB|      Pt                      0.000000000      0.000000000      0.000000000           
 NEB|      Pt                      0.000000000      0.000000000      0.000000000           
 NEB|      Pt                      0.000000000      0.000000000      0.000000000           
 NEB|      Pt                      0.000000000      0.000000000      0.000000000           
 NEB|      Pt                      0.000000000      0.000000000      0.000000000           
 NEB|      Pt                      0.000000000      0.000000000      0.000000000           
 NEB|      Pt                      0.000000000      0.000000000      0.000000000           
 NEB|      Pt                      0.000000000      0.000000000      0.000000000           
 NEB|      Pt                      0.000000000      0.000000000      0.000000000           
 NEB|      Pt                      0.000000000      0.000000000      0.000000000           
 NEB|      Pt                      0.000000000      0.000000000      0.000000000           
 NEB|      Pt                      0.000000000      0.000000000      0.000000000           
 NEB|      Pt                      0.000000000      0.000000000      0.000000000           
 NEB|      Pt                      0.000000000      0.000000000      0.000000000           
 NEB|      Pt                      0.000000000      0.000000000      0.000000000           
 NEB|      Pt                      0.000000000      0.000000000      0.000000000           
 NEB|      Pt                      0.000206364     -0.001166560     -0.000146571           
 NEB|      Pt                     -0.000080479     -0.001140178     -0.000001094           
 NEB|      Pt                     -0.000126010     -0.001013342      0.000043085           
 NEB|      Pt                      0.000230211     -0.000845115      0.000242540           
 NEB|      Pt                      0.000080220     -0.000024974      0.000072997           
 NEB|      Pt                      0.000097733     -0.000695337     -0.000382021           
 NEB|      Pt                     -0.000225270     -0.000921006     -0.000143483           
 NEB|      Pt                      0.000034434     -0.000828826     -0.000332067           
 NEB|      Pt                      0.000403867     -0.000573267      0.000892297           
 NEB|      Pt                     -0.000412364     -0.001116574      0.000021152           
 NEB|      Pt                      0.000446816     -0.000245302     -0.000275464           
 NEB|      Pt                      0.000616971     -0.000499216     -0.000188772           
 NEB|      Pt                     -0.000442407     -0.000683293      0.000162393           
 NEB|      Pt                      0.000249293     -0.000965229      0.000260392           
 NEB|      Pt                      0.000351233     -0.000018251      0.000625790           
 NEB|      Pt                     -0.000797888     -0.001291567      0.000448027           
 NEB|      Pt                     -0.000422240     -0.000906284     -0.000241928           
 NEB|      Pt                     -0.000014595     -0.000574774     -0.000830121           
 NEB|      Pt                      0.000706451      0.000376105     -0.000357815           
 NEB|      Pt                      0.001006594      0.000598476      0.002785856           
 NEB|      Pt                     -0.000624443     -0.001323890      0.000300754           
 NEB|      Pt                      0.000146223     -0.000835722      0.000520884           
 NEB|      Pt                     -0.000558510     -0.000940995     -0.000099674           
 NEB|      Pt                      0.000452056     -0.000872189      0.000537323           
 NEB|      Pt                     -0.000636894      0.000411768      0.001537254           
 NEB|      Pt                     -0.000137737      0.000505626      0.000955193           
 NEB|      Pt                     -0.000063695      0.000242091     -0.000412070           
 NEB|      Pt                     -0.000005858     -0.000650590     -0.000081867           
 NEB|      Pt                      0.000321756     -0.000801928      0.000410331           
 NEB|      Pt                     -0.000620312     -0.000485481      0.000307997           
 NEB|      Pt                      0.000251421     -0.001354199     -0.000099746           
 NEB|      Pt                     -0.000635740     -0.000369069      0.000069312           
 NEB|      O                      -0.000748784      0.010899459     -0.006180573           
 NEB| REPLICA Nr.    3- Energy and Forces
 NEB|                                     Total energy:       -5829.818153090449
 NEB|    ATOM                            X                Y                Z
 NEB|      Pt                      0.000000000      0.000000000      0.000000000           
 NEB|      Pt                      0.000000000      0.000000000      0.000000000           
 NEB|      Pt                      0.000000000      0.000000000      0.000000000           
 NEB|      Pt                      0.000000000      0.000000000      0.000000000           
 NEB|      Pt                      0.000000000      0.000000000      0.000000000           
 NEB|      Pt                      0.000000000      0.000000000      0.000000000           
 NEB|      Pt                      0.000000000      0.000000000      0.000000000           
 NEB|      Pt                      0.000000000      0.000000000      0.000000000           
 NEB|      Pt                      0.000000000      0.000000000      0.000000000           
 NEB|      Pt                      0.000000000      0.000000000      0.000000000           
 NEB|      Pt                      0.000000000      0.000000000      0.000000000           
 NEB|      Pt                      0.000000000      0.000000000      0.000000000           
 NEB|      Pt                      0.000000000      0.000000000      0.000000000           
 NEB|      Pt                      0.000000000      0.000000000      0.000000000           
 NEB|      Pt                      0.000000000      0.000000000      0.000000000           
 NEB|      Pt                      0.000000000      0.000000000      0.000000000           
 NEB|      Pt                     -0.000528034     -0.000670931      0.000830179           
 NEB|      Pt                     -0.000043214     -0.000018409     -0.000226282           
 NEB|      Pt                      0.000023967      0.000019158      0.000142338           
 NEB|      Pt                      0.000049923      0.000125349     -0.000199476           
 NEB|      Pt                     -0.000006175      0.000405149     -0.000540528           
 NEB|      Pt                     -0.000298647     -0.000156532     -0.000240414           
 NEB|      Pt                     -0.000064780     -0.000456795      0.001665299           
 NEB|      Pt                     -0.000197205     -0.000116063      0.000436975           
 NEB|      Pt                      0.000267886     -0.000709582      0.000115292           
 NEB|      Pt                      0.000043604     -0.000084708     -0.000271144           
 NEB|      Pt                     -0.000036628     -0.000227093     -0.000119974           
 NEB|      Pt                      0.000234971      0.000096001     -0.000032889           
 NEB|      Pt                     -0.000266699      0.000374040      0.000489777           
 NEB|      Pt                     -0.000148424      0.000239650      0.000138587           
 NEB|      Pt                      0.000374126      0.000192828      0.000160611           
 NEB|      Pt                      0.000099715     -0.000705347      0.000576964           
 NEB|      Pt                      0.000023794     -0.000252291      0.000321210           
 NEB|      Pt                      0.000640295     -0.001015954     -0.000324046           
 NEB|      Pt                      0.000763931     -0.000690793      0.000181179           
 NEB|      Pt                     -0.001930898     -0.000653600     -0.001163445           
 NEB|      Pt                     -0.000369870     -0.000581232      0.000938778           
 NEB|      Pt                      0.000048376     -0.000057669      0.000139214           
 NEB|      Pt                      0.000458197      0.000157796     -0.000316838           
 NEB|      Pt                     -0.000093548     -0.000537194      0.000076154           
 NEB|      Pt                     -0.000404052     -0.002022386     -0.000503827           
 NEB|      Pt                      0.003569597     -0.000766302     -0.002855458           
 NEB|      Pt                      0.000054060     -0.000576259     -0.000323611           
 NEB|      Pt                     -0.000934186     -0.000903626     -0.000620079           
 NEB|      Pt                     -0.000178835     -0.000921109      0.000751914           
 NEB|      Pt                      0.000504868      0.000013730     -0.000427283           
 NEB|      Pt                      0.000313480      0.000071332     -0.000503909           
 NEB|      Pt                     -0.000486368     -0.000375353     -0.000618010           
 NEB|      O                      -0.000649063      0.006373747      0.004918119           
 NEB| REPLICA Nr.    4- Energy and Forces
 NEB|                                     Total energy:       -5829.813434803415
 NEB|    ATOM                            X                Y                Z
 NEB|      Pt                      0.000000000      0.000000000      0.000000000           
 NEB|      Pt                      0.000000000      0.000000000      0.000000000           
 NEB|      Pt                      0.000000000      0.000000000      0.000000000           
 NEB|      Pt                      0.000000000      0.000000000      0.000000000           
 NEB|      Pt                      0.000000000      0.000000000      0.000000000           
 NEB|      Pt                      0.000000000      0.000000000      0.000000000           
 NEB|      Pt                      0.000000000      0.000000000      0.000000000           
 NEB|      Pt                      0.000000000      0.000000000      0.000000000           
 NEB|      Pt                      0.000000000      0.000000000      0.000000000           
 NEB|      Pt                      0.000000000      0.000000000      0.000000000           
 NEB|      Pt                      0.000000000      0.000000000      0.000000000           
 NEB|      Pt                      0.000000000      0.000000000      0.000000000           
 NEB|      Pt                      0.000000000      0.000000000      0.000000000           
 NEB|      Pt                      0.000000000      0.000000000      0.000000000           
 NEB|      Pt                      0.000000000      0.000000000      0.000000000           
 NEB|      Pt                      0.000000000      0.000000000      0.000000000           
 NEB|      Pt                      0.000295087      0.000081459      0.001289463           
 NEB|      Pt                      0.000004217      0.000287608     -0.000128798           
 NEB|      Pt                      0.000075935      0.000097657      0.000779909           
 NEB|      Pt                      0.000212114     -0.000297162      0.000761020           
 NEB|      Pt                     -0.000984704     -0.000075173      0.000749867           
 NEB|      Pt                     -0.000124092     -0.000154960      0.000617445           
 NEB|      Pt                     -0.000308245      0.001054609      0.000263072           
 NEB|      Pt                      0.000676562     -0.000999041     -0.000726318           
 NEB|      Pt                     -0.000386851      0.000336153      0.000221094           
 NEB|      Pt                     -0.000160535     -0.000310079     -0.000014559           
 NEB|      Pt                     -0.000138479      0.000312010      0.000133339           
 NEB|      Pt                      0.000012590      0.000391776      0.000569596           
 NEB|      Pt                      0.000319156     -0.000555923      0.000496992           
 NEB|      Pt                      0.000203994     -0.000053560      0.000382976           
 NEB|      Pt                     -0.001220718     -0.000980348      0.000375612           
 NEB|      Pt                      0.000530380     -0.000405706      0.000578904           
 NEB|      Pt                      0.000155972     -0.000212336     -0.000215297           
 NEB|      Pt                      0.000319196     -0.000223042     -0.000410781           
 NEB|      Pt                     -0.000155486      0.000184311     -0.001010095           
 NEB|      Pt                     -0.002010016     -0.000205561     -0.002764415           
 NEB|      Pt                      0.000610524      0.000475352     -0.000745320           
 NEB|      Pt                      0.000189650     -0.000107026     -0.000525987           
 NEB|      Pt                      0.000043305      0.000259358     -0.000951392           
 NEB|      Pt                     -0.000383128     -0.000049546     -0.001426553           
 NEB|      Pt                      0.000470310      0.001693387     -0.000111617           
 NEB|      Pt                      0.001436621      0.000089685     -0.001425313           
 NEB|      Pt                      0.000195912     -0.000042470     -0.000742909           
 NEB|      Pt                      0.000204886     -0.000124986     -0.000460970           
 NEB|      Pt                      0.000211924     -0.000389392     -0.000234856           
 NEB|      Pt                     -0.000082740     -0.000368872     -0.000060764           
 NEB|      Pt                     -0.000002310     -0.000034077     -0.000319177           
 NEB|      Pt                      0.000259203     -0.001133473     -0.000481094           
 NEB|      O                       0.000074837     -0.003229861      0.003614857           
 NEB| REPLICA Nr.    5- Energy and Forces
 NEB|                                     Total energy:       -5829.777557606258
 NEB|    ATOM                            X                Y                Z
 NEB|      Pt                      0.000000000      0.000000000      0.000000000           
 NEB|      Pt                      0.000000000      0.000000000      0.000000000           
 NEB|      Pt                      0.000000000      0.000000000      0.000000000           
 NEB|      Pt                      0.000000000      0.000000000      0.000000000           
 NEB|      Pt                      0.000000000      0.000000000      0.000000000           
 NEB|      Pt                      0.000000000      0.000000000      0.000000000           
 NEB|      Pt                      0.000000000      0.000000000      0.000000000           
 NEB|      Pt                      0.000000000      0.000000000      0.000000000           
 NEB|      Pt                      0.000000000      0.000000000      0.000000000           
 NEB|      Pt                      0.000000000      0.000000000      0.000000000           
 NEB|      Pt                      0.000000000      0.000000000      0.000000000           
 NEB|      Pt                      0.000000000      0.000000000      0.000000000           
 NEB|      Pt                      0.000000000      0.000000000      0.000000000           
 NEB|      Pt                      0.000000000      0.000000000      0.000000000           
 NEB|      Pt                      0.000000000      0.000000000      0.000000000           
 NEB|      Pt                      0.000000000      0.000000000      0.000000000           
 NEB|      Pt                     -0.003313662      0.001915748      0.002657560           
 NEB|      Pt                     -0.002279584     -0.000887143      0.000963358           
 NEB|      Pt                      0.000403617     -0.000821752      0.002345012           
 NEB|      Pt                      0.000101552      0.002309051      0.001373696           
 NEB|      Pt                     -0.003402989      0.002037833      0.004936102           
 NEB|      Pt                      0.000890330     -0.000329884      0.004165516           
 NEB|      Pt                      0.002863419      0.002401425      0.002550566           
 NEB|      Pt                     -0.001127516     -0.003176685      0.003363256           
 NEB|      Pt                      0.000397050      0.000127042     -0.001512044           
 NEB|      Pt                      0.000254447     -0.002560376      0.000191042           
 NEB|      Pt                      0.001645138      0.001171380      0.001427713           
 NEB|      Pt                     -0.000723422      0.000063623      0.004253080           
 NEB|      Pt                      0.002449659     -0.000948024      0.001572395           
 NEB|      Pt                     -0.001876447      0.001309669      0.002230201           
 NEB|      Pt                      0.000720656     -0.003068473      0.003351979           
 NEB|      Pt                      0.003381497      0.001854765      0.004987144           
 NEB|      Pt                      0.000040363      0.000434497     -0.004052523           
 NEB|      Pt                     -0.001501120     -0.000194700     -0.002875521           
 NEB|      Pt                     -0.002082013     -0.002330592     -0.001484825           
 NEB|      Pt                     -0.044415272      0.024594944     -0.040476314           
 NEB|      Pt                     -0.000072484      0.001356286     -0.001611903           
 NEB|      Pt                     -0.000420839     -0.000222752     -0.004581250           
 NEB|      Pt                      0.000587212      0.001658289     -0.001705910           
 NEB|      Pt                      0.000983433     -0.000472440     -0.002753898           
 NEB|      Pt                     -0.000902253     -0.049287968     -0.036365437           
 NEB|      Pt                      0.041624091      0.023613930     -0.036352703           
 NEB|      Pt                      0.001275325     -0.001247151     -0.002202778           
 NEB|      Pt                      0.001184277     -0.000351119     -0.002075843           
 NEB|      Pt                     -0.000222037      0.001048973     -0.002022493           
 NEB|      Pt                     -0.001352699     -0.000614457     -0.002296869           
 NEB|      Pt                      0.001234926     -0.000829416     -0.001419881           
 NEB|      Pt                      0.001387558     -0.000604283     -0.000959377           
 NEB|      O                       0.003711482     -0.000595189      0.104958792           

 *******************************************************************************
 BAND TYPE                     =                                          CI-NEB
 BAND TYPE OPTIMIZATION        =                                              SD
 STEP NUMBER                   =                                              24
 NUMBER OF NEB REPLICA         =                                               5
 DISTANCES REP =        1.116332        1.140020        1.138728        0.751162
 ENERGIES [au] =    -5829.799681    -5829.829670    -5829.818153    -5829.813435
                    -5829.777558
 BAND TOTAL ENERGY [au]        =                           -29149.03766650655598
 *******************************************************************************

 NEB| Computing Energies and Forces
