         0      -5829.796576334      -5829.759974989      -5829.731140288      -5829.749447741      -5829.776195543          0.763121049          0.763121049          0.763121049          0.763121049
         1      -5829.796704688      -5829.817443037      -5829.803945884      -5829.801461666      -5829.776338051          0.897486440          0.778344256          0.778966808          0.886732236
         2      -5829.797015565      -5829.823213488      -5829.810318158      -5829.809841710      -5829.776668465          0.914309545          0.841729493          0.851085679          0.897687736
         3      -5829.797473646      -5829.824216040      -5829.811993292      -5829.810338780      -5829.777352959          0.899334220          0.849291919          0.889180126          0.892137521
         4      -5829.797505953      -5829.824904405      -5829.813545678      -5829.810610817      -5829.777554763          0.893585995          0.881603484          0.904579622          0.895128785
         5      -5829.797500296      -5829.824898032      -5829.813651647      -5829.811597930      -5829.777612933          0.893309628          0.905352843          0.912801437          0.898644176
         6      -5829.797536726      -5829.825728972      -5829.813915185      -5829.810666714      -5829.777462826          0.901433727          0.911450440          0.917450356          0.902803837
         7      -5829.797554785      -5829.825804641      -5829.813628132      -5829.811829826      -5829.777408779          0.903574396          0.915951062          0.918395368          0.902985636
         8      -5829.797572791      -5829.825784246      -5829.813517196      -5829.811703163      -5829.777376364          0.905704357          0.919773358          0.921584177          0.901151678
         9      -5829.797589251      -5829.825751508      -5829.813808625      -5829.811744793      -5829.777368138          0.906473642          0.921198583          0.923123084          0.899262385
        10      -5829.797737201      -5829.825884391      -5829.815627568      -5829.811643319      -5829.777437065          0.911578310          0.930148206          0.929826919          0.894811867
        11      -5829.797966913      -5829.826228998      -5829.816898327      -5829.811659964      -5829.777317159          0.927039533          0.948757319          0.950101314          0.882584925
        12      -5829.798195494      -5829.826437752      -5829.816863921      -5829.813957567      -5829.777022118          0.937424991          0.961857746          0.967738538          0.873932907
        13      -5829.798132178      -5829.826557231      -5829.816699014      -5829.812752943      -5829.777459480          0.951086027          0.973635714          0.985088210          0.855152242
        14      -5829.798096693      -5829.826683198      -5829.816722783      -5829.812704701      -5829.777542762          0.956658616          0.980724768          0.992779797          0.850115236
        15      -5829.798245643      -5829.828491439      -5829.816014687      -5829.811961394      -5829.777518830          0.967417609          0.999630779          1.005970391          0.844703485
        16      -5829.798340378      -5829.828939796      -5829.816903499      -5829.814173145      -5829.777671376          0.982848114          1.008791955          1.017464434          0.841449521
        17      -5829.798391812      -5829.828922228      -5829.817446267      -5829.813849090      -5829.777610025          0.986841402          1.012670138          1.020431928          0.838450611
        18      -5829.798237896      -5829.828121823      -5829.816066589      -5829.813953904      -5829.777678257          1.006961393          1.037280160          1.034997472          0.825345274
        19      -5829.798271418      -5829.828710081      -5829.817023583      -5829.813303258      -5829.777513385          1.023705842          1.047612454          1.046610603          0.816633903
        20      -5829.798412281      -5829.828716825      -5829.816172811      -5829.813825125      -5829.777343859          1.041121286          1.074841100          1.062932446          0.807001785
        21      -5829.798433632      -5829.829086046      -5829.817230099      -5829.812868512      -5829.777500350          1.044585469          1.076248904          1.066173886          0.803923697
        22      -5829.798200201      -5829.829643996      -5829.817404543      -5829.813884462      -5829.777599328          1.076438552          1.097450387          1.097077309          0.780896693
        23      -5829.798430835      -5829.829862399      -5829.817634984      -5829.814003787      -5829.777910880          1.091823323          1.124573507          1.114421028          0.771453656
        24      -5829.799681140      -5829.829669553      -5829.818153090      -5829.813434803      -5829.777557606          1.116332140          1.140019895          1.138728499          0.751161705
