      49
 i =       0, E =    -5829.7494477412
 Pt         0.0006338165        0.0002447036        5.0031213554
 Pt         1.4064941667        2.4355892000        5.0014622573
 Pt         2.8126347001        0.0004073337        5.0038903177
 Pt         4.2184950503        2.4357518301        5.0022312195
 Pt         2.8123545069        4.8709336964        4.9998031591
 Pt         4.2182148571        7.3062781928        4.9981440609
 Pt         5.6243554004        4.8710963265        5.0005721214
 Pt         7.0302157506        7.3064408229        4.9989130232
 Pt         5.6246355936        0.0005699638        5.0046592800
 Pt         7.0304959438        2.4359144602        5.0030001818
 Pt         8.4366364772        0.0007325938        5.0054282422
 Pt         9.8424968273        2.4360770902        5.0037691440
 Pt         8.4363562840        4.8712589566        5.0013410836
 Pt         9.8422166342        7.3066034530        4.9996819854
 Pt        11.2483571775        4.8714215866        5.0021100459
 Pt        12.6542175177        7.3067660830        5.0004509477
 Pt         5.6245449207        3.2512132780        7.3426709376
 Pt         4.2178670654        0.8135278394        7.3390369448
 Pt         2.8120627918        3.2479478376        7.3384995522
 Pt         8.4352750960        8.1178804420        7.3340857955
 Pt         7.0265333970        5.6814507291        7.3319238460
 Pt         5.6236889884        8.1203490147        7.3279538874
 Pt        11.2495726571        3.2507357862        7.3428935539
 Pt         9.8420716239        0.8097371249        7.3388124878
 Pt         8.4344624758        3.2469379814        7.3357203189
 Pt        14.0601192554        8.1189325260        7.3384332960
 Pt        12.6557587309        5.6827252048        7.3348736269
 Pt        11.2488279656        8.1194036829        7.3289150631
 Pt         1.4069562705        0.8129688831        7.3369996112
 Pt         4.2173377485        5.6830556220        7.3317114773
 Pt         7.0304711654        0.8098431546        7.3370801363
 Pt         9.8445636633        5.6829576128        7.3302391012
 Pt         2.8136547625        1.6223921768        9.6823339371
 Pt         4.2194858634        4.0562691231        9.6759452147
 Pt         5.6167464583        1.6193440567        9.6712056014
 Pt         7.0184941835        4.0593301215        9.6777087095
 Pt         5.6225582830        6.4958710683        9.6652337149
 Pt         7.0321171357        8.9296973548        9.6727753560
 Pt         8.4360495698        6.5104552019        9.6581718462
 Pt         9.8414993548        8.9293385871        9.6700698058
 Pt         8.4366868065        1.6105187357        9.6761763994
 Pt         9.8552109332        4.0600868025        9.6728217302
 Pt        11.2583979711        1.6178642479        9.6726150654
 Pt        12.6561813983        4.0553978988        9.6772243292
 Pt        11.2505711332        6.4956470752        9.6651720186
 Pt        12.6538134251        8.9293857951        9.6695425766
 Pt        14.0589287888        6.4945368546        9.6714827326
 Pt        15.4663352642        8.9294759040        9.6704921023
  O         8.4311151802        3.6568804387       10.6570060663
      49
 i =       1, E =    -5829.8014616657
 Pt         0.0006114770        0.0002360788        5.0030113400
 Pt         1.4064767676        2.4355777496        5.0014107185
 Pt         2.8126123657        0.0003929768        5.0037531994
 Pt         4.2184776563        2.4357346477        5.0021525779
 Pt         2.8123420482        4.8709194205        4.9998100970
 Pt         4.2182073389        7.3062610914        4.9982094754
 Pt         5.6243429469        4.8710763185        5.0005519563
 Pt         7.0302082376        7.3064179894        4.9989513348
 Pt         5.6246132644        0.0005498748        5.0044950588
 Pt         7.0304785550        2.4358915457        5.0028944373
 Pt         8.4366141531        0.0007067728        5.0052369182
 Pt         9.8424794437        2.4360484437        5.0036362967
 Pt         8.4363438357        4.8712332165        5.0012938157
 Pt         9.8422091263        7.3065748874        4.9996931942
 Pt        11.2483447344        4.8713901145        5.0020356751
 Pt        12.6542100150        7.3067317854        5.0004350536
 Pt         5.6231388875        3.2533560812        7.3493405538
 Pt         4.2160761732        0.8133204018        7.3404550904
 Pt         2.8123818503        3.2466176975        7.3424343190
 Pt         8.4361252470        8.1191287421        7.3345487077
 Pt         7.0254088065        5.6836602928        7.3336637105
 Pt         5.6248813319        8.1198345942        7.3306631870
 Pt        11.2505090811        3.2538997526        7.3487500147
 Pt         9.8414931471        0.8062271582        7.3409505889
 Pt         8.4353572929        3.2463054440        7.3334234177
 Pt        14.0600935333        8.1171471602        7.3388374216
 Pt        12.6564225617        5.6839955414        7.3357218866
 Pt        11.2467542672        8.1186489922        7.3310878991
 Pt         1.4092949113        0.8120266819        7.3383069362
 Pt         4.2163999942        5.6835297061        7.3330351124
 Pt         7.0313061562        0.8061664480        7.3400657844
 Pt         9.8461480272        5.6853606992        7.3318029792
 Pt         2.8134911663        1.6237020171        9.6815766289
 Pt         4.2195868669        4.0558408656        9.6719384107
 Pt         5.6153729935        1.6179344129        9.6702855431
 Pt         6.9143650437        4.0818324541        9.6027667773
 Pt         5.6224204026        6.4994385122        9.6647572922
 Pt         7.0312016317        8.9304332266        9.6692029049
 Pt         8.4355674026        6.5185293122        9.6548186253
 Pt         9.8409501182        8.9302329682        9.6663341060
 Pt         8.4376995773        1.5928363700        9.6584266097
 Pt         9.9515611453        4.0793421375        9.6032235010
 Pt        11.2590480633        1.6157597239        9.6721356783
 Pt        12.6553358663        4.0540788638        9.6743801779
 Pt        11.2510685329        6.4982804870        9.6655378637
 Pt        12.6522513992        8.9294746193        9.6680014487
 Pt        14.0590120104        6.4947901727        9.6696450899
 Pt        15.4674939847        8.9306469635        9.6692491837
  O         8.4385487141        3.6582228601       10.8137167092
      49
 i =       2, E =    -5829.8098417098
 Pt         0.0006223780        0.0002402874        5.0030650239
 Pt         1.4064852578        2.4355833371        5.0014358677
 Pt         2.8126232641        0.0003999825        5.0038201086
 Pt         4.2184861440        2.4357430321        5.0021909524
 Pt         2.8123481277        4.8709263867        4.9998067115
 Pt         4.2182110075        7.3062694363        4.9981775553
 Pt         5.6243490238        4.8710860817        5.0005617962
 Pt         7.0302119037        7.3064291314        4.9989326400
 Pt         5.6246241603        0.0005596776        5.0045751933
 Pt         7.0304870402        2.4359027272        5.0029460371
 Pt         8.4366250465        0.0007193726        5.0053302780
 Pt         9.8424879264        2.4360624222        5.0037011218
 Pt         8.4363499100        4.8712457768        5.0013168809
 Pt         9.8422127899        7.3065888264        4.9996877247
 Pt        11.2483508062        4.8714054719        5.0020719656
 Pt        12.6542136761        7.3067485215        5.0004428094
 Pt         5.6068779100        3.2581506300        7.3422234547
 Pt         4.2134883729        0.8129291621        7.3408945079
 Pt         2.8139005098        3.2466493691        7.3493847935
 Pt         8.4371797058        8.1188938547        7.3307469250
 Pt         7.0223444121        5.6978871947        7.3216503446
 Pt         5.6264674092        8.1169842601        7.3343464352
 Pt        11.2656185583        3.2597942250        7.3449283939
 Pt         9.8415157362        0.7956245522        7.3423947888
 Pt         8.4366630899        3.2473660588        7.3372042947
 Pt        14.0611212275        8.1104019315        7.3377886392
 Pt        12.6608305049        5.6899813916        7.3358210067
 Pt        11.2435366648        8.1152082617        7.3331728423
 Pt         1.4128170857        0.8110516998        7.3389983129
 Pt         4.2114143213        5.6876142405        7.3338746214
 Pt         7.0326937424        0.7944894739        7.3409150671
 Pt         9.8507606534        5.7011635330        7.3211785198
 Pt         2.8132280185        1.6263233741        9.6806938087
 Pt         4.1857210282        4.0573563071        9.6737270236
 Pt         5.6070977450        1.6124056021        9.6675499523
 Pt         6.9613488079        4.0486006259        9.5895077582
 Pt         5.6093201636        6.5217714984        9.6679886407
 Pt         7.0276558648        8.9339228469        9.6591753198
 Pt         8.4348657020        6.5316569888        9.6438396706
 Pt         9.8401918484        8.9342301158        9.6571317928
 Pt         8.4369439102        1.6094726437        9.6388079367
 Pt         9.9129991592        4.0434792299        9.5849151975
 Pt        11.2663600595        1.6073872768        9.6695423215
 Pt        12.6828909073        4.0543549986        9.6728384382
 Pt        11.2617982792        6.5187673299        9.6674168136
 Pt        12.6474342557        8.9262385125        9.6655608322
 Pt        14.0572047499        6.4983626435        9.6656703580
 Pt        15.4716848681        8.9304264109        9.6680002212
  O         8.4350382817        3.6232939062       10.8998315767
      49
 i =       3, E =    -5829.8103387798
 Pt         0.0006276578        0.0002423259        5.0030910256
 Pt         1.4064893700        2.4355860433        5.0014480487
 Pt         2.8126285428        0.0004033757        5.0038525159
 Pt         4.2184902550        2.4357470931        5.0022095390
 Pt         2.8123510722        4.8709297607        4.9998050718
 Pt         4.2182127844        7.3062734782        4.9981620949
 Pt         5.6243519672        4.8710908105        5.0005665621
 Pt         7.0302136794        7.3064345280        4.9989235852
 Pt         5.6246294377        0.0005644255        5.0046140063
 Pt         7.0304911499        2.4359081429        5.0029710294
 Pt         8.4366303227        0.0007254753        5.0053754966
 Pt         9.8424920349        2.4360691927        5.0037325197
 Pt         8.4363528521        4.8712518604        5.0013280525
 Pt         9.8422145643        7.3065955778        4.9996850756
 Pt        11.2483537471        4.8714129102        5.0020895428
 Pt        12.6542154493        7.3067566276        5.0004465659
 Pt         5.6054518654        3.2616287766        7.3483172882
 Pt         4.2122967035        0.8117596031        7.3388696672
 Pt         2.8135843279        3.2465676027        7.3436542350
 Pt         8.4370049106        8.1233375599        7.3278518646
 Pt         7.0183950703        5.6984437854        7.3248980664
 Pt         5.6268065295        8.1170349194        7.3321046433
 Pt        11.2686149409        3.2622682401        7.3494501656
 Pt         9.8427843865        0.7944051197        7.3416477131
 Pt         8.4374453100        3.2482268588        7.3211104662
 Pt        14.0611553201        8.1093952641        7.3389486502
 Pt        12.6625904464        5.6902743147        7.3363975424
 Pt        11.2443878720        8.1174931975        7.3304381733
 Pt         1.4138665445        0.8108916737        7.3374597804
 Pt         4.2109914067        5.6878038127        7.3346050304
 Pt         7.0328065666        0.7920802584        7.3390306092
 Pt         9.8547969772        5.7028784381        7.3240468336
 Pt         2.8117450608        1.6226344955        9.6808025696
 Pt         4.1909506938        4.0607256772        9.6747643009
 Pt         5.6040769776        1.6121716932        9.6641073694
 Pt         6.9700722989        4.0471062769        9.5879507085
 Pt         5.6077725990        6.5180065738        9.6666903111
 Pt         7.0281559724        8.9370870532        9.6597312414
 Pt         8.4341146327        6.5319093311        9.6388623588
 Pt         9.8382798842        8.9360222261        9.6589671332
 Pt         8.4357903109        1.6066202896        9.6403504338
 Pt         9.9021651586        4.0368986617        9.5858569735
 Pt        11.2690941797        1.6062220057        9.6655157689
 Pt        12.6766898257        4.0566465056        9.6747767675
 Pt        11.2609129746        6.5158345134        9.6639567133
 Pt        12.6480468718        8.9282123940        9.6647518755
 Pt        14.0558336701        6.4997161868        9.6683809019
 Pt        15.4698539946        8.9334106021        9.6687019485
  O         8.4360577021        3.6076472808       10.9207334813
      49
 i =       4, E =    -5829.8106108167
 Pt         0.0006303001        0.0002433460        5.0031040380
 Pt         1.4064914279        2.4355873976        5.0014541446
 Pt         2.8126311844        0.0004050738        5.0038687341
 Pt         4.2184923123        2.4357491254        5.0022188406
 Pt         2.8123525458        4.8709314493        4.9998042512
 Pt         4.2182136737        7.3062755009        4.9981543577
 Pt         5.6243534402        4.8710931771        5.0005689472
 Pt         7.0302145680        7.3064372287        4.9989190538
 Pt         5.6246320788        0.0005668016        5.0046334301
 Pt         7.0304932067        2.4359108532        5.0029835367
 Pt         8.4366329632        0.0007285294        5.0053981261
 Pt         9.8424940910        2.4360725810        5.0037482327
 Pt         8.4363543245        4.8712549049        5.0013336432
 Pt         9.8422154524        7.3065989565        4.9996837498
 Pt        11.2483552189        4.8714166327        5.0020983393
 Pt        12.6542163367        7.3067606843        5.0004484458
 Pt         5.6038702213        3.2610565131        7.3512000777
 Pt         4.2125149544        0.8132355599        7.3348393856
 Pt         2.8122008964        3.2484964441        7.3445640985
 Pt         8.4353964099        8.1262506750        7.3248269178
 Pt         7.0137843501        5.7037495226        7.3251227479
 Pt         5.6267319404        8.1171090190        7.3302338920
 Pt        11.2715936241        3.2653653818        7.3491864079
 Pt         9.8408562476        0.7912172686        7.3381611644
 Pt         8.4349090807        3.2472535085        7.3100483057
 Pt        14.0608537827        8.1063542407        7.3386676137
 Pt        12.6638614088        5.6902030586        7.3354533351
 Pt        11.2463697081        8.1184941574        7.3308358426
 Pt         1.4138426634        0.8108729921        7.3367258013
 Pt         4.2087381671        5.6909143061        7.3369554680
 Pt         7.0303560437        0.7930276065        7.3427132992
 Pt         9.8576175554        5.6992081724        7.3248630279
 Pt         2.8120776326        1.6239526077        9.6807279317
 Pt         4.1951142036        4.0613445170        9.6747565433
 Pt         5.6028177855        1.6094441914        9.6578887242
 Pt         6.9830411193        4.0370336614        9.5937362445
 Pt         5.6088559885        6.5179909844        9.6641193549
 Pt         7.0310682968        8.9378391670        9.6591560684
 Pt         8.4350835657        6.5307182413        9.6317596996
 Pt         9.8403217557        8.9404516961        9.6560796800
 Pt         8.4385989753        1.6059992573        9.6368549418
 Pt         9.8871961470        4.0380239097        9.5939278355
 Pt        11.2710641575        1.6079160471        9.6617482468
 Pt        12.6767180221        4.0586137886        9.6746935196
 Pt        11.2614847148        6.5129102389        9.6665445874
 Pt        12.6470881138        8.9344843090        9.6668984836
 Pt        14.0593099252        6.5042555958        9.6690461519
 Pt        15.4703011812        8.9304664636        9.6650197284
  O         8.4349379862        3.5966607410       10.9427181371
      49
 i =       5, E =    -5829.8115979298
 Pt         0.0006325739        0.0002442239        5.0031152361
 Pt         1.4064931989        2.4355885631        5.0014593905
 Pt         2.8126334578        0.0004065351        5.0038826908
 Pt         4.2184940828        2.4357508744        5.0022268453
 Pt         2.8123538139        4.8709329024        4.9998035450
 Pt         4.2182144389        7.3062772416        4.9981476994
 Pt         5.6243547078        4.8710952136        5.0005709997
 Pt         7.0302153327        7.3064395528        4.9989151542
 Pt         5.6246343516        0.0005688464        5.0046501456
 Pt         7.0304949766        2.4359131856        5.0029943000
 Pt         8.4366352354        0.0007311576        5.0054176003
 Pt         9.8424958604        2.4360754968        5.0037617547
 Pt         8.4363555916        4.8712575248        5.0013384545
 Pt         9.8422162166        7.3066018641        4.9996826089
 Pt        11.2483564854        4.8714198361        5.0021059092
 Pt        12.6542171004        7.3067641753        5.0004500636
 Pt         5.6039424173        3.2670746483        7.3509909469
 Pt         4.2107624873        0.8139433715        7.3363381007
 Pt         2.8134922586        3.2480231114        7.3470801503
 Pt         8.4373077352        8.1262268304        7.3235110238
 Pt         7.0127090179        5.6994129854        7.3277718179
 Pt         5.6273743339        8.1185264691        7.3293185969
 Pt        11.2692371478        3.2666917854        7.3509155335
 Pt         9.8424211149        0.7908053972        7.3392747914
 Pt         8.4357570838        3.2475238626        7.3058512658
 Pt        14.0601639495        8.1065812965        7.3379336605
 Pt        12.6635990980        5.6924571685        7.3381059280
 Pt        11.2433308546        8.1178076403        7.3302492714
 Pt         1.4144599079        0.8124701440        7.3351961366
 Pt         4.2098935737        5.6898976838        7.3369736963
 Pt         7.0323615972        0.7895474209        7.3393132464
 Pt         9.8589804046        5.7017834658        7.3281963219
 Pt         2.8125364472        1.6256904627        9.6808262237
 Pt         4.1954750207        4.0613565975        9.6752161868
 Pt         5.5998256347        1.6113003934        9.6582198125
 Pt         6.9908821621        4.0360358153        9.5964911854
 Pt         5.6112903316        6.5147842705        9.6641713543
 Pt         7.0305156604        8.9396663541        9.6562063983
 Pt         8.4347254878        6.5306304565        9.6273655880
 Pt         9.8393337573        8.9409839487        9.6532564203
 Pt         8.4367649618        1.6079789971        9.6338103189
 Pt         9.8807499196        4.0322006725        9.5971550857
 Pt        11.2714607033        1.6074766257        9.6598570591
 Pt        12.6762254797        4.0588699827        9.6744900672
 Pt        11.2589960121        6.5135417082        9.6637779594
 Pt        12.6471987100        8.9332975875        9.6658109519
 Pt        14.0570701655        6.5061579427        9.6703435160
 Pt        15.4703931599        8.9345461256        9.6653154083
  O         8.4361779748        3.5922938487       10.9519308735
      49
 i =       6, E =    -5829.8106667141
 Pt         0.0006356700        0.0002454192        5.0031304833
 Pt         1.4064956103        2.4355901501        5.0014665334
 Pt         2.8126365531        0.0004085249        5.0039016943
 Pt         4.2184964934        2.4357532557        5.0022377444
 Pt         2.8123555406        4.8709348809        4.9998025835
 Pt         4.2182154809        7.3062796117        4.9981386335
 Pt         5.6243564337        4.8710979865        5.0005737944
 Pt         7.0302163740        7.3064427174        4.9989098445
 Pt         5.6246374463        0.0005716305        5.0046729052
 Pt         7.0304973865        2.4359163614        5.0030089553
 Pt         8.4366383294        0.0007347362        5.0054441162
 Pt         9.8424982697        2.4360794670        5.0037801663
 Pt         8.4363573168        4.8712610922        5.0013450054
 Pt         9.8422172571        7.3066058230        4.9996810555
 Pt        11.2483582099        4.8714241979        5.0021162164
 Pt        12.6542181402        7.3067689287        5.0004522664
 Pt         5.6048526173        3.2653108309        7.3548681189
 Pt         4.2109267817        0.8153847593        7.3339937906
 Pt         2.8139370072        3.2496731039        7.3418932921
 Pt         8.4370927248        8.1283398496        7.3222813184
 Pt         7.0129769151        5.6994400989        7.3266599559
 Pt         5.6256604378        8.1183026644        7.3302379089
 Pt        11.2680521435        3.2662728502        7.3543418895
 Pt         9.8426618937        0.7929237108        7.3374007597
 Pt         8.4360954538        3.2470755065        7.3031970159
 Pt        14.0614701944        8.1062180548        7.3397636030
 Pt        12.6666024206        5.6916980995        7.3375740188
 Pt        11.2458386295        8.1189928050        7.3294345712
 Pt         1.4144209213        0.8129634610        7.3328119936
 Pt         4.2069224926        5.6893919491        7.3362694856
 Pt         7.0331104800        0.7910111691        7.3358891196
 Pt         9.8594195830        5.7022426457        7.3269722502
 Pt         2.8112328995        1.6250861582        9.6800271247
 Pt         4.1981361772        4.0630016531        9.6775575168
 Pt         5.6001906227        1.6123648768        9.6562440075
 Pt         6.9932258084        4.0378353184        9.5963287974
 Pt         5.6108179462        6.5151510166        9.6641881280
 Pt         7.0308353493        8.9390288943        9.6581205072
 Pt         8.4346079265        6.5317162494        9.6270281224
 Pt         9.8374832202        8.9387827123        9.6579752449
 Pt         8.4369961627        1.6029131636        9.6358453066
 Pt         9.8789549426        4.0311308730        9.5972513214
 Pt        11.2706537293        1.6072849378        9.6571614578
 Pt        12.6707818727        4.0603158992        9.6780668658
 Pt        11.2576190448        6.5132896269        9.6623571694
 Pt        12.6461741092        8.9320159590        9.6640769437
 Pt        14.0558686931        6.5057216605        9.6725419153
 Pt        15.4706667444        8.9351272867        9.6664314804
  O         8.4357465974        3.5893970116       10.9598306308
      49
 i =       7, E =    -5829.8118298264
 Pt         0.0006361716        0.0002456129        5.0031329536
 Pt         1.4064960010        2.4355904072        5.0014676907
 Pt         2.8126370546        0.0004088473        5.0039047732
 Pt         4.2184968840        2.4357536415        5.0022395102
 Pt         2.8123558203        4.8709352014        4.9998024277
 Pt         4.2182156497        7.3062799957        4.9981371647
 Pt         5.6243567133        4.8710984358        5.0005742472
 Pt         7.0302165427        7.3064432301        4.9989089842
 Pt         5.6246379476        0.0005720816        5.0046765927
 Pt         7.0304977770        2.4359168759        5.0030113297
 Pt         8.4366388306        0.0007353160        5.0054484123
 Pt         9.8424986600        2.4360801103        5.0037831493
 Pt         8.4363575963        4.8712616702        5.0013460668
 Pt         9.8422174257        7.3066064645        4.9996808038
 Pt        11.2483584893        4.8714249045        5.0021178863
 Pt        12.6542183087        7.3067696988        5.0004526233
 Pt         5.6047925557        3.2657885106        7.3545336250
 Pt         4.2109812347        0.8153896866        7.3340110690
 Pt         2.8137213565        3.2499173097        7.3424437303
 Pt         8.4369595393        8.1285420131        7.3217696542
 Pt         7.0129780318        5.6995607403        7.3265045902
 Pt         5.6256084481        8.1184719256        7.3301254527
 Pt        11.2680825870        3.2663587474        7.3546371207
 Pt         9.8430206641        0.7925705012        7.3377422631
 Pt         8.4363408141        3.2471239997        7.3031832711
 Pt        14.0615045567        8.1062992458        7.3392985927
 Pt        12.6662808595        5.6917200130        7.3377017198
 Pt        11.2458968242        8.1190416081        7.3295808543
 Pt         1.4141521886        0.8139238504        7.3324871398
 Pt         4.2070416176        5.6896846555        7.3365767266
 Pt         7.0331729139        0.7910088747        7.3357370932
 Pt         9.8598519378        5.7021636109        7.3275173851
 Pt         2.8112336225        1.6254975730        9.6798315972
 Pt         4.1982820669        4.0629600674        9.6776453836
 Pt         5.6002038775        1.6123350983        9.6560031801
 Pt         6.9954888541        4.0375185325        9.5978846823
 Pt         5.6107973190        6.5148971199        9.6641429350
 Pt         7.0312478465        8.9394221662        9.6572754602
 Pt         8.4347875023        6.5315151474        9.6259041287
 Pt         9.8374408542        8.9390057210        9.6575364031
 Pt         8.4358571942        1.6024088498        9.6348221918
 Pt         9.8778257438        4.0306478795        9.5978920994
 Pt        11.2707783848        1.6073693813        9.6564650350
 Pt        12.6703811146        4.0606214915        9.6777150854
 Pt        11.2568832277        6.5135225727        9.6623341099
 Pt        12.6460596318        8.9319024877        9.6633351246
 Pt        14.0560478174        6.5062769241        9.6725959905
 Pt        15.4707668380        8.9354967440        9.6659187372
  O         8.4357803426        3.5889639367       10.9608279477
      49
 i =       8, E =    -5829.8117031633
 Pt         0.0006375359        0.0002461396        5.0031396721
 Pt         1.4064970635        2.4355911064        5.0014708381
 Pt         2.8126384186        0.0004097240        5.0039131468
 Pt         4.2184979462        2.4357546908        5.0022443127
 Pt         2.8123565812        4.8709360733        4.9998020040
 Pt         4.2182161088        7.3062810401        4.9981331699
 Pt         5.6243574739        4.8710996577        5.0005754787
 Pt         7.0302170015        7.3064446245        4.9989066446
 Pt         5.6246393113        0.0005733084        5.0046866215
 Pt         7.0304988389        2.4359182753        5.0030177874
 Pt         8.4366401939        0.0007368928        5.0054600962
 Pt         9.8424997216        2.4360818597        5.0037912621
 Pt         8.4363583565        4.8712632421        5.0013489533
 Pt         9.8422178842        7.3066082089        4.9996801193
 Pt        11.2483592492        4.8714268265        5.0021224280
 Pt        12.6542187669        7.3067717933        5.0004535940
 Pt         5.6048331926        3.2663622732        7.3543168317
 Pt         4.2108819207        0.8152013183        7.3340024631
 Pt         2.8136694329        3.2502016847        7.3426312337
 Pt         8.4368096835        8.1288459684        7.3215252388
 Pt         7.0130165902        5.6994597394        7.3262002746
 Pt         5.6254348718        8.1185187958        7.3300442770
 Pt        11.2679647049        3.2662109769        7.3553009547
 Pt         9.8433984551        0.7926302744        7.3379233823
 Pt         8.4367496052        3.2471292651        7.3030165764
 Pt        14.0616094034        8.1062858300        7.3392691616
 Pt        12.6664568160        5.6915978660        7.3378698529
 Pt        11.2461400585        8.1191427894        7.3295985070
 Pt         1.4139449439        0.8147791364        7.3319321584
 Pt         4.2068880248        5.6897669210        7.3366935067
 Pt         7.0334508504        0.7910969290        7.3349395065
 Pt         9.8604008192        5.7022940451        7.3278221309
 Pt         2.8111008369        1.6258182079        9.6794400295
 Pt         4.1983034530        4.0631949406        9.6780434775
 Pt         5.6002535848        1.6124144844        9.6559671914
 Pt         6.9974066344        4.0377489862        9.5991380560
 Pt         5.6104964197        6.5145396586        9.6643498481
 Pt         7.0312362499        8.9395832434        9.6568395704
 Pt         8.4347193433        6.5314861613        9.6253815100
 Pt         9.8372746132        8.9389314111        9.6576620816
 Pt         8.4346105855        1.6018707387        9.6348391767
 Pt         9.8769143326        4.0298342271        9.5983094527
 Pt        11.2706330180        1.6073608218        9.6557505854
 Pt        12.6696869802        4.0609198130        9.6778178585
 Pt        11.2561639210        6.5137865750        9.6616656344
 Pt        12.6457500711        8.9314908157        9.6627432820
 Pt        14.0557333191        6.5063013869        9.6729782985
 Pt        15.4708045104        8.9359604171        9.6658284198
  O         8.4358275004        3.5874010776       10.9613881736
      49
 i =       9, E =    -5829.8117447929
 Pt         0.0006382918        0.0002464315        5.0031433950
 Pt         1.4064976523        2.4355914939        5.0014725821
 Pt         2.8126391744        0.0004102098        5.0039177869
 Pt         4.2184985348        2.4357552723        5.0022469740
 Pt         2.8123570028        4.8709365564        4.9998017692
 Pt         4.2182163632        7.3062816188        4.9981309563
 Pt         5.6243578953        4.8711003347        5.0005761611
 Pt         7.0302172557        7.3064453972        4.9989053481
 Pt         5.6246400669        0.0005739882        5.0046921787
 Pt         7.0304994273        2.4359190507        5.0030213658
 Pt         8.4366409494        0.0007377666        5.0054665705
 Pt         9.8425003098        2.4360828291        5.0037957576
 Pt         8.4363587778        4.8712641131        5.0013505529