      49
 i =       0, E =    -5829.7599749887
 Pt         0.0002112722        0.0000815679        5.0010404518
 Pt         1.4061650689        2.4353726200        5.0004874191
 Pt         2.8122122534        0.0001357779        5.0012967726
 Pt         4.2181660501        2.4354268300        5.0007437398
 Pt         2.8121188556        4.8706636721        4.9999343864
 Pt         4.2180726524        7.3059547243        4.9993813536
 Pt         5.6241198468        4.8707178822        5.0001907071
 Pt         7.0300736435        7.3060089343        4.9996376744
 Pt         5.6242132445        0.0001899879        5.0015530933
 Pt         7.0301670413        2.4354810401        5.0010000606
 Pt         8.4362142257        0.0002441979        5.0018094141
 Pt         9.8421680224        2.4355352501        5.0012563813
 Pt         8.4361208280        4.8707720922        5.0004470279
 Pt         9.8420746247        7.3060631443        4.9998939951
 Pt        11.2481218192        4.8708263022        5.0007033486
 Pt        12.6540756059        7.3061173543        5.0001503159
 Pt         5.6269805350        3.2480657835        7.3460016787
 Pt         4.2177902971        0.8105536832        7.3388970850
 Pt         2.8117418476        3.2447312219        7.3388931387
 Pt         8.4373001702        8.1126302257        7.3437138260
 Pt         7.0297127771        5.6809552335        7.3334920791
 Pt         5.6250213697        8.1181600869        7.3283162337
 Pt        11.2459192467        3.2497760768        7.3474576489
 Pt         9.8434741092        0.8102492754        7.3328565606
 Pt         8.4360174016        3.2462370023        7.3348838123
 Pt        14.0594696429        8.1167224121        7.3361941727
 Pt        12.6528451030        5.6805943343        7.3338502730
 Pt        11.2467864614        8.1165366887        7.3310045966
 Pt         1.4080498574        0.8116928922        7.3380107596
 Pt         4.2175388661        5.6802319637        7.3306078437
 Pt         7.0278520740        0.8100068114        7.3322744207
 Pt         9.8436698420        5.6817437021        7.3351225359
 Pt         2.8139583636        1.6229053749        9.6827909994
 Pt         4.2156548250        4.0544242589        9.6783368412
 Pt         5.6201558804        1.6173893795        9.6781550290
 Pt         7.0132878646        4.0481852002        9.6742468315
 Pt         5.6123216011        6.4986404082        9.6586390460
 Pt         7.0298412978        8.9317764669        9.6749490438
 Pt         8.4367870815        6.5135636084        9.6686218249
 Pt         9.8440763623        8.9307010824        9.6781742531
 Pt         8.4383731560        1.6038549796        9.6626022328
 Pt         9.8621032355        4.0480143024        9.6734757223
 Pt        11.2552615526        1.6172418330        9.6774750175
 Pt        12.6592090124        4.0549411435        9.6813853454
 Pt        11.2604061383        6.4973872280        9.6640650865
 Pt        12.6537648533        8.9274033735        9.6678427057
 Pt        14.0586457141        6.4923201066        9.6692303602
 Pt        15.4673542647        8.9279946969        9.6675416165
  O         8.4309931517        4.4633611423       10.6419406084
      49
 i =       1, E =    -5829.8174430369
 Pt         0.0002447829        0.0000945057        5.0012054822
 Pt         1.4061911687        2.4353897963        5.0005647307
 Pt         2.8122457564        0.0001573142        5.0015024591
 Pt         4.2181921421        2.4354526048        5.0008617075
 Pt         2.8121375445        4.8706850870        4.9999239791
 Pt         4.2180839302        7.3059803776        4.9992832276
 Pt         5.6241385279        4.8707478955        5.0002209560
 Pt         7.0300849136        7.3060431861        4.9995802044
 Pt         5.6242467398        0.0002201227        5.0017994359
 Pt         7.0301931256        2.4355154133        5.0011586844
 Pt         8.4362477133        0.0002829312        5.0020964128
 Pt         9.8421940990        2.4355782218        5.0014556612
 Pt         8.4361395013        4.8708107040        5.0005179328
 Pt         9.8420858871        7.3061059946        4.9998771813
 Pt        11.2481404848        4.8708735125        5.0008149097
 Pt        12.6540868605        7.3061688031        5.0001741581
 Pt         5.6273923831        3.2524352108        7.3545756648
 Pt         4.2179232052        0.8108225873        7.3415129614
 Pt         2.8119645913        3.2461313108        7.3409419382
 Pt         8.4373460497        8.1120090304        7.3491703214
 Pt         7.0278679353        5.6805808930        7.3333808687
 Pt         5.6256943615        8.1162083775        7.3301156613
 Pt        11.2463454461        3.2520451210        7.3551207663
 Pt         9.8426692675        0.8104360408        7.3343201158
 Pt         8.4349571767        3.2450305396        7.3320281977
 Pt        14.0598378474        8.1169349068        7.3369732676
 Pt        12.6539055521        5.6804534964        7.3342340855
 Pt        11.2456878260        8.1168564061        7.3326199594
 Pt         1.4080223920        0.8119818367        7.3392262793
 Pt         4.2175197665        5.6813464452        7.3314558516
 Pt         7.0289100136        0.8097917721        7.3336976344
 Pt         9.8452169409        5.6834287359        7.3329644878
 Pt         2.8141281749        1.6228662922        9.6821218245
 Pt         4.2163634121        4.0538193591        9.6754551130
 Pt         5.6186960355        1.6138020507        9.6793530608
 Pt         6.9043322513        4.0064804791        9.5945116425
 Pt         5.6124647544        6.4998096730        9.6599241720
 Pt         7.0307695179        8.9316806022        9.6733929306
 Pt         8.4380130001        6.5352056855        9.6540174734
 Pt         9.8438945880        8.9322498631        9.6761105030
 Pt         8.4378722769        1.5968559532        9.6594458209
 Pt         9.9624754226        4.0117688993        9.5996560794
 Pt        11.2552848316        1.6148870286        9.6790594838
 Pt        12.6591383131        4.0526838052        9.6795971218
 Pt        11.2611447468        6.4997615569        9.6633169996
 Pt        12.6528141702        8.9267299936        9.6654165101
 Pt        14.0590668907        6.4915275051        9.6693076387
 Pt        15.4675661871        8.9284554782        9.6667114929
  O         8.4374936053        4.4632542330       10.7986975840
      49
 i =       2, E =    -5829.8232134883
 Pt         0.0002623818        0.0001013003        5.0012921513
 Pt         1.4062048755        2.4353988168        5.0006053324
 Pt         2.8122633512        0.0001686244        5.0016104795
 Pt         4.2182058449        2.4354661410        5.0009236606
 Pt         2.8121473593        4.8706963334        4.9999185135
 Pt         4.2180898530        7.3059938500        4.9992316947
 Pt         5.6241483386        4.8707636576        5.0002368418
 Pt         7.0300908324        7.3060611742        4.9995500229
 Pt         5.6242643305        0.0002359486        5.0019288078
 Pt         7.0302068243        2.4355334652        5.0012419889
 Pt         8.4362652999        0.0003032728        5.0022471360
 Pt         9.8422077936        2.4356007893        5.0015603171
 Pt         8.4361493080        4.8708309818        5.0005551700
 Pt         9.8420918017        7.3061284983        4.9998683511
 Pt        11.2481502874        4.8708983059        5.0008734982
 Pt        12.6540927711        7.3061958225        5.0001866794
 Pt         5.6145262032        3.2510394437        7.3537559954
 Pt         4.2194461543        0.8096470444        7.3459208961
 Pt         2.8114165576        3.2501902215        7.3462967020
 Pt         8.4377965320        8.1058814997        7.3579453400
 Pt         7.0290918657        5.6861901014        7.3264582448
 Pt         5.6280977208        8.1127900922        7.3325181607
 Pt        11.2560310636        3.2541387156        7.3567312746
 Pt         9.8422809788        0.8121214289        7.3341793078
 Pt         8.4352213225        3.2440813934        7.3282286475
 Pt        14.0606019143        8.1164819005        7.3391807664
 Pt        12.6558113521        5.6812140158        7.3342741815
 Pt        11.2428974973        8.1175936128        7.3338075491
 Pt         1.4072869248        0.8127312371        7.3449999583
 Pt         4.2137687593        5.6862181433        7.3322946830
 Pt         7.0312001645        0.8051165854        7.3344860035
 Pt         9.8467074721        5.6917060525        7.3232878984
 Pt         2.8135861251        1.6211812829        9.6832814442
 Pt         4.1815337816        4.0519675982        9.6805565818
 Pt         5.6043565111        1.5872490560        9.6833883672
 Pt         6.9349786683        3.9895524560        9.5612717330
 Pt         5.6024315829        6.5061482114        9.6543541449
 Pt         7.0256521858        8.9387521470        9.6724963377
 Pt         8.4390776094        6.5316549081        9.6443281469
 Pt         9.8453242879        8.9438347865        9.6703137359
 Pt         8.4342669818        1.5806729037        9.6455218037
 Pt         9.9428454114        3.9827826290        9.5707049195
 Pt        11.2677032628        1.5926072782        9.6863947509
 Pt        12.6887982142        4.0496148098        9.6802131126
 Pt        11.2699787596        6.5086711542        9.6592931739
 Pt        12.6512288909        8.9264795684        9.6622967488
 Pt        14.0607453326        6.4907682164        9.6672912692
 Pt        15.4699225175        8.9301305630        9.6635538211
  O         8.4332654608        4.5041931998       10.8668801853
      49
 i =       3, E =    -5829.8242160403
 Pt         0.0002816419        0.0001087362        5.0013870013
 Pt         1.4062198762        2.4354086888        5.0006497667
 Pt         2.8122826068        0.0001810023        5.0017286964
 Pt         4.2182208411        2.4354809549        5.0009914617
 Pt         2.8121581005        4.8707086414        4.9999125320
 Pt         4.2180963349        7.3060085941        4.9991752974
 Pt         5.6241590754        4.8707809075        5.0002542271
 Pt         7.0300973098        7.3060808602        4.9995169924
 Pt         5.6242835817        0.0002532683        5.0020703914
 Pt         7.0302218160        2.4355532210        5.0013331568
 Pt         8.4362845466        0.0003255344        5.0024120865
 Pt         9.8422227810        2.4356254871        5.0016748518
 Pt         8.4361600404        4.8708531736        5.0005959221
 Pt         9.8420982747        7.3061531262        4.9998586875
 Pt        11.2481610153        4.8709254397        5.0009376172
 Pt        12.6540992396        7.3062253923        5.0002003825
 Pt         5.6111152085        3.2510665828        7.3568792135
 Pt         4.2181598875        0.8100315700        7.3444758390
 Pt         2.8114258063        3.2501505482        7.3442696766
 Pt         8.4366069920        8.1037146083        7.3599359439
 Pt         7.0276638128        5.6873832743        7.3223287189
 Pt         5.6298095668        8.1135787103        7.3322293296
 Pt        11.2586145643        3.2547160351        7.3587289877
 Pt         9.8443756396        0.8125436803        7.3324149645
 Pt         8.4368971776        3.2435139780        7.3161190651
 Pt        14.0612303407        8.1164064975        7.3388561256
 Pt        12.6546937109        5.6819395227        7.3341698734
 Pt        11.2423177273        8.1170043721        7.3324588988
 Pt         1.4083513199        0.8128505766        7.3456574689
 Pt         4.2146015532        5.6862703350        7.3316579269
 Pt         7.0293846986        0.8051266925        7.3328744478
 Pt         9.8488802728        5.6924580684        7.3215078374
 Pt         2.8118397164        1.6182425107        9.6867088048
 Pt         4.1826088076        4.0506702160        9.6809915661
 Pt         5.6013532167        1.5841153909        9.6838999166
 Pt         6.9481642965        3.9856841374        9.5650023149
 Pt         5.5988276738        6.5048725904        9.6503495597
 Pt         7.0251632777        8.9402120957        9.6734320471
 Pt         8.4391807195        6.5252259105        9.6433583593
 Pt         9.8438182922        8.9438467708        9.6719275377
 Pt         8.4338462717        1.5707891554        9.6405957932
 Pt         9.9274543437        3.9796693085        9.5762803141
 Pt        11.2709086515        1.5869139406        9.6898402564
 Pt        12.6874500429        4.0476464890        9.6812718710
 Pt        11.2721370607        6.5071138261        9.6554284990
 Pt        12.6530893443        8.9238085176        9.6638034979
 Pt        14.0608558803        6.4945792470        9.6685523705
 Pt        15.4689109267        8.9285521425        9.6635978520
  O         8.4350037010        4.5071600291       10.8616883424
      49
 i =       4, E =    -5829.8249044053
 Pt         0.0003047803        0.0001176695        5.0015009512
 Pt         1.4062378975        2.4354205487        5.0007031486
 Pt         2.8123057399        0.0001958726        5.0018707183
 Pt         4.2182388571        2.4354987518        5.0010729158
 Pt         2.8121710047        4.8707234279        4.9999053461
 Pt         4.2181041220        7.3060263072        4.9991075435
 Pt         5.6241719743        4.8708016311        5.0002751132
 Pt         7.0301050915        7.3061045103        4.9994773107
 Pt         5.6243067095        0.0002740757        5.0022404855
 Pt         7.0302398267        2.4355769550        5.0014426830
 Pt         8.4363076690        0.0003522789        5.0026102527
 Pt         9.8422407862        2.4356551581        5.0018124502
 Pt         8.4361729339        4.8708798342        5.0006448804
 Pt         9.8421060511        7.3061827134        4.9998470779
 Pt        11.2481739035        4.8709580373        5.0010146476
 Pt        12.6541070107        7.3062609166        5.0002168451
 Pt         5.6121584682        3.2523989188        7.3621168849
 Pt         4.2142057132        0.8105510355        7.3447479462
 Pt         2.8127551023        3.2501792412        7.3439359574
 Pt         8.4394125756        8.0995405118        7.3624215213
 Pt         7.0256332374        5.6867734806        7.3215356686
 Pt         5.6290640753        8.1146141650        7.3313325295
 Pt        11.2608300830        3.2534207877        7.3649492739
 Pt         9.8475635042        0.8118038878        7.3305214808
 Pt         8.4371426661        3.2416417434        7.3056509818
 Pt        14.0608373861        8.1160942343        7.3373534209
 Pt        12.6565594308        5.6847901322        7.3336193117
 Pt        11.2439507330        8.1174891624        7.3313208877
 Pt         1.4096671168        0.8128859218        7.3457660038
 Pt         4.2147087099        5.6855825539        7.3305064275
 Pt         7.0266356767        0.8050312048        7.3305624317
 Pt         9.8489817361        5.6937859201        7.3191804849
 Pt         2.8092606891        1.6144339329        9.6896529979
 Pt         4.1858719219        4.0496654475        9.6797963074
 Pt         5.5989171321        1.5809362725        9.6855891360
 Pt         6.9498545071        3.9763443452        9.5641740313
 Pt         5.5996473331        6.5006108557        9.6491942465
 Pt         7.0275311238        8.9396486845        9.6754107053
 Pt         8.4374498276        6.5214228481        9.6397266548
 Pt         9.8434793789        8.9411267253        9.6718900491
 Pt         8.4346075041        1.5595819667        9.6341127110
 Pt         9.9206487337        3.9745030858        9.5735146292
 Pt        11.2710007391        1.5814290641        9.6902496147
 Pt        12.6824349625        4.0447238404        9.6819079104
 Pt        11.2724475516        6.5057787649        9.6505008007
 Pt        12.6522760444        8.9207930264        9.6620548604
 Pt        14.0605483881        6.4974513123        9.6689343364
 Pt        15.4643997639        8.9250895338        9.6614527827
  O         8.4351680327        4.5190997173       10.8643833889
      49
 i =       5, E =    -5829.8248980323
 Pt         0.0003285986        0.0001268652        5.0016182489
 Pt         1.4062564483        2.4354327570        5.0007580989
 Pt         2.8123295526        0.0002111798        5.0020169129
 Pt         4.2182574024        2.4355170716        5.0011567630
 Pt         2.8121842881        4.8707386488        4.9998979490
 Pt         4.2181121378        7.3060445406        4.9990377990
 Pt         5.6241852521        4.8708229634        5.0002966130
 Pt         7.0301131019        7.3061288553        4.9994364631
 Pt         5.6243305167        0.0002954945        5.0024155770
 Pt         7.0302583665        2.4356013863        5.0015554271
 Pt         8.4363314708        0.0003798091        5.0028142411
 Pt         9.8422593205        2.4356857009        5.0019540911
 Pt         8.4361862062        4.8709072781        5.0006952771
 Pt         9.8421140560        7.3062131699        4.9998351272
 Pt        11.2481871703        4.8709915927        5.0010939412
 Pt        12.6541150101        7.3062974845        5.0002337913
 Pt         5.6115244074        3.2512178284        7.3618889978
 Pt         4.2141409797        0.8099683035        7.3449685685
 Pt         2.8127393085        3.2508846650        7.3461240153
 Pt         8.4385768677        8.1013668732        7.3627073127
 Pt         7.0228584944        5.6853854389        7.3200687109
 Pt         5.6306408822        8.1153866514        7.3316605927
 Pt        11.2600463398        3.2551906291        7.3657673389
 Pt         9.8483199111        0.8113499871        7.3277005174
 Pt         8.4394982326        3.2404784379        7.3032106725
 Pt        14.0617990584        8.1169860684        7.3344781545
 Pt        12.6576116115        5.6845440020        7.3338216713
 Pt        11.2422608253        8.1187504789        7.3298044330
 Pt         1.4094927577        0.8117574519        7.3463796260
 Pt         4.2140569408        5.6866981897        7.3294573564
 Pt         7.0265604029        0.8037351459        7.3292612372
 Pt         9.8519959102        5.6918496985        7.3176043962
 Pt         2.8087445517        1.6131036442        9.6927803982
 Pt         4.1835972634        4.0474826136        9.6815733550
 Pt         5.5976970801        1.5770748365        9.6865092471
 Pt         6.9583494872        3.9717121502        9.5649333692
 Pt         5.5976171354        6.4985170369        9.6466837280
 Pt         7.0272526698        8.9370161615        9.6757545589
 Pt         8.4373235785        6.5165151948        9.6394931106
 Pt         9.8417591645        8.9390825296        9.6731006400
 Pt         8.4334521213        1.5534369989        9.6300524898
 Pt         9.9141360884        3.9684833422        9.5733505617
 Pt        11.2706023243        1.5776903269        9.6926164539
 Pt        12.6825041262        4.0416340332        9.6829102158
 Pt        11.2724993542        6.5035058363        9.6495665340
 Pt        12.6501351395        8.9175678304        9.6634186880
 Pt        14.0618504595        6.4958035698        9.6684248216
 Pt        15.4660799712        8.9216280317        9.6625164310
  O         8.4341225838        4.5220178738       10.8644057688
      49
 i =       6, E =    -5829.8257289719
 Pt         0.0003518512        0.0001358426        5.0017327613
 Pt         1.4062745586        2.4354446754        5.0008117444
 Pt         2.8123527999        0.0002261236        5.0021596361
 Pt         4.2182755073        2.4355349564        5.0012386192
 Pt         2.8121972560        4.8707535083        4.9998907275
 Pt         4.2181199634        7.3060623412        4.9989697106
 Pt         5.6241982147        4.8708437893        5.0003176023
 Pt         7.0301209221        7.3061526222        4.9993965854
 Pt         5.6243537586        0.0003164046        5.0025865110
 Pt         7.0302764660        2.4356252374        5.0016654941
 Pt         8.4363547073        0.0004066856        5.0030133858
 Pt         9.8422774147        2.4357155184        5.0020923689
 Pt         8.4361991634        4.8709340703        5.0007444772
 Pt         9.8421218708        7.3062429032        4.9998234602
 Pt        11.2482001221        4.8710243513        5.0011713520
 Pt        12.6541228195        7.3063331842        5.0002503351
 Pt         5.6126623813        3.2504629595        7.3634143274
 Pt         4.2124004797        0.8106212871        7.3456391739
 Pt         2.8127964526        3.2514705609        7.3479499243
 Pt         8.4380198132        8.0985026091        7.3628551087
 Pt         7.0228584959        5.6842015567        7.3180111843
 Pt         5.6320088600        8.1156108493        7.3306799881
 Pt        11.2606896548        3.2551311131        7.3676918728
 Pt         9.8491681226        0.8121246527        7.3275470630
 Pt         8.4377804685        3.2401182425        7.2994687360
 Pt        14.0620985540        8.1170364952        7.3335258652
 Pt        12.6581237859        5.6841232375        7.3340937916
 Pt        11.2406241794        8.1181228215        7.3313175085
 Pt         1.4101688076        0.8119701419        7.3480226227
 Pt         4.2137143063        5.6873731902        7.3291172165
 Pt         7.0260191539        0.8029105424        7.3279756321
 Pt         9.8518941314        5.6924191595        7.3173957689
 Pt         2.8098314382        1.6091894475        9.6955447556
 Pt         4.1845960710        4.0440502658        9.6830960575
 Pt         5.5968808468        1.5731959922        9.6889339784
 Pt         6.9589207101        3.9654987174        9.5630392259
 Pt         5.5978360024        6.4948965135        9.6447586996
 Pt         7.0286599712        8.9333975892        9.6772443967
 Pt         8.4373168345        6.5124913456        9.6379728848
 Pt         9.8420997251        8.9369903610        9.6743499716
 Pt         8.4331615084        1.5455290476        9.6255078118
 Pt         9.9121214710        3.9643573996        9.5728448836
 Pt        11.2688411621        1.5724664306        9.6951088665
 Pt        12.6811028277        4.0390979158        9.6829224052
 Pt        11.2732965724        6.4994828650        9.6486304879
 Pt        12.6486496401        8.9154942090        9.6644136571
 Pt        14.0596116916        6.4940480660        9.6691351385
 Pt        15.4669496074        8.9167558801        9.6638939489
  O         8.4345444088        4.5249916259       10.8674586875
      49
 i =       7, E =    -5829.8258046412
 Pt         0.0003601789        0.0001390577        5.0017737724
 Pt         1.4062810446        2.4354489439        5.0008309568
 Pt         2.8123611256        0.0002314755        5.0022107505
 Pt         4.2182819913        2.4355413616        5.0012679349
 Pt         2.8122019003        4.8707588300        4.9998881412
 Pt         4.2181227660        7.3060687162        4.9989453257
 Pt         5.6242028571        4.8708512478        5.0003251194
 Pt         7.0301237228        7.3061611339        4.9993823038
 Pt         5.6243620824        0.0003238933        5.0026477286
 Pt         7.0302829481        2.4356337794        5.0017049130
 Pt         8.4363630292        0.0004163110        5.0030847067
 Pt         9.8422838949        2.4357261972        5.0021418912
 Pt         8.4362038038        4.8709436656        5.0007620975
 Pt         9.8421246695        7.3062535517        4.9998192819
 Pt        11.2482047606        4.8710360833        5.0011990756
 Pt        12.6541256163        7.3063459695        5.0002562600
 Pt         5.6127155199        3.2500722824        7.3642181623
 Pt         4.2120096502        0.8112507115        7.3461253861
 Pt         2.8126733636        3.2515884470        7.3482393464
 Pt         8.4375234929        8.0977846293        7.3628871141
 Pt         7.0226774919        5.6846138855        7.3175198347
 Pt         5.6320470780        8.1160684247        7.3307205554
 Pt        11.2606063702        3.2544270467        7.3682723470
 Pt         9.8496634395        0.8114827451        7.3275995287
 Pt         8.4378159802        3.2400340175        7.2989424097
 Pt        14.0619563503        8.1171273015        7.3338827017
 Pt        12.6584555779        5.6842619729        7.3335807643
 Pt        11.2410474048        8.1180822886        7.3311449716
 Pt         1.4104940924        0.8123414378        7.3484163609
 Pt         4.2136139004        5.6867281963        7.3292749788
 Pt         7.0255160910        0.8032302809        7.3278140225
 Pt         9.8519536631        5.6915979358        7.3175232358
 Pt         2.8096730339        1.6077654807        9.6961383542
 Pt         4.1854802241        4.0428021103        9.6827890944
 Pt         5.5968689831        1.5719195702        9.6891010042
 Pt         6.9595903529        3.9634769571        9.5629733050
 Pt         5.5982069475        6.4940100541        9.6442606807
 Pt         7.0288379855        8.9323756717        9.6774271066
 Pt         8.4370762997        6.5107172196        9.6378552977
 Pt         9.8417477388        8.9356961233        9.6746871528
 Pt         8.4331198608        1.5428428696        9.6244698631
 Pt         9.9110649791        3.9628228510        9.5718739052
 Pt        11.2689056313        1.5708643416        9.6951627357
 Pt        12.6806973239        4.0383037648        9.6828834202
 Pt        11.2729722694        6.4982503604        9.6478362205
 Pt        12.6487885028        8.9142712624        9.6641367491
 Pt        14.0594441179        6.4937846673        9.6689346247
 Pt        15.4670133553        8.9152745172        9.6635280523
  O         8.4346273076        4.5256895767       10.8676231279
      49
 i =       8, E =    -5829.8257842455
 Pt         0.0003685133        0.0001422755        5.0018148170
 Pt         1.4062875358        2.4354532158        5.0008501849
 Pt         2.8123694582        0.0002368318        5.0022619067
 Pt         4.2182884807        2.4355477721        5.0012972746
 Pt         2.8122065484        4.8707641561        4.9998855529
 Pt         4.2181255709        7.3060750964        4.9989209208
 Pt         5.6242075032        4.8708587124        5.0003326425
 Pt         7.0301265258        7.3061696527        4.9993680104
 Pt         5.6243704130        0.0003313881        5.0027089964
 Pt         7.0302894355        2.4356423284        5.0017443643
 Pt         8.4363713579        0.0004259444        5.0031560861
 Pt         9.8422903804        2.4357368847        5.0021914540
 Pt         8.4362084481        4.8709532687        5.0007797322
 Pt         9.8421274706        7.3062642090        4.9998151001
 Pt        11.2482094029        4.8710478250        5.0012268219
 Pt        12.6541284155        7.3063587653        5.0002621898
 Pt         5.6125801320        3.2498446904        7.3649787554
 Pt         4.2117548795        0.8116288195        7.3465318105
 Pt         2.8125295058        3.2516315338        7.3486556694
 Pt         8.4370731904        8.0971835752        7.3629503666
 Pt         7.0223495888        5.6852180223        7.3171434842
 Pt         5.6322213655        8.1165025234        7.3308386203
 Pt        11.2605224668        3.2538230301        7.3686652867
 Pt         9.8502123178        0.8105445138        7.3275856271
 Pt         8.4378450589        3.2400319189        7.2985190125
 Pt        14.0617911680        8.1171948210        7.3341450076
 Pt        12.6586931336        5.6845405889        7.3332009374
 Pt        11.2413210381        8.1179535707        7.3309099577
 Pt         1.4108297124        0.8124432087        7.3487655911
 Pt         4.2136462163        5.6861590655        7.3295022355
 Pt         7.0249943496        0.8034812716        7.3276168018
 Pt         9.8521140871        5.6908764034        7.3176877831
 Pt         2.8095647732        1.6066180616        9.6966234984
 Pt         4.1863579996        4.0414875191        9.6823349623
 Pt         5.5968763526        1.5705650047        9.6890170645
 Pt         6.9604142154        3.9616616482        9.5633027190
 Pt         5.5986196778        6.4931405255        9.6436736149
 Pt         7.0288911727        8.9313678586        9.6774901769
 Pt         8.4368821900        6.5090240972        9.6374724359
 Pt         9.8412931204        8.9344656335        9.6747968838
 Pt         8.4330729402        1.5405833185        9.6233047963
 Pt         9.9100337975        3.9615127506        9.5710287693
 Pt        11.2690368852        1.5694968551        9.6950480956
 Pt        12.6805560940        4.0375657226        9.6828374577
 Pt        11.2726700736        6.4968515746        9.6469983413
 Pt        12.6491697843        8.9130334265        9.6636143718
 Pt        14.0594091630        6.4935099100        9.6685311566
 Pt        15.4670265235        8.9137516660        9.6629958193
  O         8.4346085613        4.5261221857       10.8677125804
      49
 i =       9, E =    -5829.8257515079
 Pt         0.0003721570        0.0001436822        5.0018327611
 Pt         1.4062903737        2.4354550834        5.0008585912
 Pt         2.8123731010        0.0002391735        5.0022842714
 Pt         4.2182913177        2.4355505746        5.0013101015
 Pt         2.8122085804        4.8707664846        4.9998844213
 Pt         4.2181267972        7.3060778857        4.9989102513
 Pt         5.6242095345        4.8708619758        5.0003359315
 Pt         7.0301277512        7.3061733770        4.9993617616
 Pt         5.6243740550        0.0003346647        5.0027357817
 Pt         7.0302922717        2.4356460659        5.0017616118
 Pt         8.4363749990        0.0004301559        5.0031872920
 Pt         9.8422932157        2.4357415571        5.0022131221
 Pt         8.4362104785        4.8709574670        5.0007874418