      49
 i =       0, E =    -5829.7311402882
 Pt         0.0004225444        0.0001631358        5.0020809036
 Pt         1.4063296178        2.4354809100        5.0009748382
 Pt         2.8124234767        0.0002715558        5.0025935451
 Pt         4.2183305502        2.4355893301        5.0014874797
 Pt         2.8122366813        4.8707986843        4.9998687727
 Pt         4.2181437547        7.3061164586        4.9987627073
 Pt         5.6242376236        4.8709071043        5.0003814142
 Pt         7.0301446971        7.3062248786        4.9992753488
 Pt         5.6244244191        0.0003799758        5.0031061866
 Pt         7.0303314925        2.4356977501        5.0020001212
 Pt         8.4364253514        0.0004883959        5.0036188281
 Pt         9.8423324249        2.4358061702        5.0025127627
 Pt         8.4362385560        4.8710155244        5.0008940557
 Pt         9.8421456295        7.3063332986        4.9997879903
 Pt        11.2482394984        4.8711239444        5.0014066973
 Pt        12.6541465618        7.3064417187        5.0003006318
 Pt         5.6257627279        3.2496395307        7.3443363082
 Pt         4.2178286813        0.8120407613        7.3389670149
 Pt         2.8119023197        3.2463395298        7.3386963455
 Pt         8.4362876331        8.1152553338        7.3388998108
 Pt         7.0281230870        5.6812029813        7.3327079625
 Pt         5.6243551791        8.1192545508        7.3281350605
 Pt        11.2477459519        3.2502559315        7.3451756014
 Pt         9.8427728666        0.8099932002        7.3358345242
 Pt         8.4352399387        3.2465874919        7.3353020656
 Pt        14.0597944492        8.1178274691        7.3373137344
 Pt        12.6543019170        5.6816597695        7.3343619500
 Pt        11.2478072135        8.1179701858        7.3299598298
 Pt         1.4075030639        0.8123308876        7.3375051854
 Pt         4.2174383073        5.6816437928        7.3311596605
 Pt         7.0291616197        0.8099249830        7.3346772785
 Pt         9.8441167526        5.6823506575        7.3326808186
 Pt         2.8138065631        1.6226487759        9.6825624683
 Pt         4.2175703442        4.0553466910        9.6771410280
 Pt         5.6184511693        1.6183667181        9.6746803152
 Pt         7.0158910241        4.0537576609        9.6759777705
 Pt         5.6174399420        6.4972557383        9.6619363804
 Pt         7.0309792167        8.9307369109        9.6738621999
 Pt         8.4364183257        6.5120094052        9.6633968355
 Pt         9.8427878585        8.9300198348        9.6741220295
 Pt         8.4375299813        1.6071868577        9.6693893161
 Pt         9.8586570843        4.0540505524        9.6731487262
 Pt        11.2568297618        1.6175530404        9.6750450415
 Pt        12.6576952053        4.0551695212        9.6793048373
 Pt        11.2554886357        6.4965171516        9.6646185525
 Pt        12.6537891392        8.9283945843        9.6686926411
 Pt        14.0587872515        6.4934284806        9.6703565464
 Pt        15.4668447645        8.9287353004        9.6690168594
  O         8.4310541660        4.0601207905       10.6494733373
      49
 i =       1, E =    -5829.8039458841
 Pt         0.0004259460        0.0001644491        5.0020976558
 Pt         1.4063322672        2.4354826536        5.0009826860
 Pt         2.8124268776        0.0002737419        5.0026144242
 Pt         4.2183331988        2.4355919465        5.0014994545
 Pt         2.8122385784        4.8708008581        4.9998677163
 Pt         4.2181448995        7.3061190626        4.9987527466
 Pt         5.6242395199        4.8709101510        5.0003844848
 Pt         7.0301458411        7.3062283555        4.9992695150
 Pt         5.6244278192        0.0003830348        5.0031311927
 Pt         7.0303341403        2.4357012393        5.0020162230
 Pt         8.4364287507        0.0004923277        5.0036479612
 Pt         9.8423350719        2.4358105322        5.0025329915
 Pt         8.4362404515        4.8710194438        5.0009012533
 Pt         9.8421467727        7.3063376484        4.9997862835
 Pt        11.2482413931        4.8711287367        5.0014180218
 Pt        12.6541477043        7.3064469412        5.0003030520
 Pt         5.6239888890        3.2517670899        7.3516563852
 Pt         4.2168121697        0.8122216342        7.3401101872
 Pt         2.8119507452        3.2464672663        7.3422471753
 Pt         8.4372115785        8.1180382613        7.3402257543
 Pt         7.0264412205        5.6828700645        7.3334147994
 Pt         5.6251721727        8.1178760193        7.3298145240
 Pt        11.2491707043        3.2532763634        7.3511781084
 Pt         9.8420113347        0.8088477617        7.3370383600
 Pt         8.4351181864        3.2450304899        7.3321915640
 Pt        14.0597004905        8.1170862669        7.3382979092
 Pt        12.6555807758        5.6820947783        7.3350130983
 Pt        11.2463947598        8.1179950708        7.3320395006
 Pt         1.4088173449        0.8120481236        7.3384017854
 Pt         4.2167263825        5.6818243088        7.3323898427
 Pt         7.0296139698        0.8074529214        7.3371779363
 Pt         9.8454983041        5.6846327099        7.3328348455
 Pt         2.8144879711        1.6242020023        9.6814247440
 Pt         4.2179013005        4.0544353079        9.6726632834
 Pt         5.6185186552        1.6166346677        9.6741775088
 Pt         6.8775099515        4.0469872962        9.5783859529
 Pt         5.6178301933        6.4999509252        9.6633368424
 Pt         7.0310114249        8.9310009476        9.6712544883
 Pt         8.4366283526        6.5299137432        9.6532532745
 Pt         9.8427763892        8.9303537564        9.6718705139
 Pt         8.4368834603        1.5927971522        9.6584124332
 Pt         9.9869606091        4.0476552653        9.5844563966
 Pt        11.2561358015        1.6159491866        9.6746139609
 Pt        12.6573872238        4.0533058969        9.6758149692
 Pt        11.2560394768        6.4989626146        9.6649048929
 Pt        12.6520715348        8.9292124752        9.6666646473
 Pt        14.0594130057        6.4929442678        9.6685937258
 Pt        15.4681180482        8.9291782729        9.6679532161
  O         8.4400961802        4.0611442138       10.8509369630
      49
 i =       2, E =    -5829.8103181580
 Pt         0.0004349952        0.0001679428        5.0021422201
 Pt         1.4063393151        2.4354872918        5.0010035630
 Pt         2.8124359247        0.0002795575        5.0026699673
 Pt         4.2183402446        2.4355989066        5.0015313102
 Pt         2.8122436250        4.8708066409        4.9998649059
 Pt         4.2181479450        7.3061259900        4.9987262489
 Pt         5.6242445645        4.8709182557        5.0003926531
 Pt         7.0301488845        7.3062376048        4.9992539960
 Pt         5.6244368641        0.0003911723        5.0031977144
 Pt         7.0303411841        2.4357105214        5.0020590574
 Pt         8.4364377936        0.0005027871        5.0037254616
 Pt         9.8423421136        2.4358221362        5.0025868045
 Pt         8.4362454940        4.8710298705        5.0009204003
 Pt         9.8421498139        7.3063492195        4.9997817432
 Pt        11.2482464335        4.8711414853        5.0014481474
 Pt        12.6541507434        7.3064608343        5.0003094903
 Pt         5.6057903086        3.2500181451        7.3388553496
 Pt         4.2141864375        0.8125713085        7.3417757978
 Pt         2.8109089274        3.2495413040        7.3464941389
 Pt         8.4399878401        8.1185405314        7.3396934911
 Pt         7.0275476700        5.6933038838        7.3193148727
 Pt         5.6267081613        8.1147206464        7.3307544349
 Pt        11.2670860641        3.2575899126        7.3428926804
 Pt         9.8402939548        0.8084780430        7.3353565285
 Pt         8.4326797630        3.2456436318        7.3342513117
 Pt        14.0609658348        8.1134895605        7.3396046468
 Pt        12.6591475267        5.6846599084        7.3346138401
 Pt        11.2415123839        8.1172720704        7.3339808412
 Pt         1.4096343991        0.8096211274        7.3408312940
 Pt         4.2102210452        5.6865329719        7.3305670209
 Pt         7.0325945324        0.7995506162        7.3373040290
 Pt         9.8456841816        5.7001193630        7.3190402939
 Pt         2.8157917835        1.6236634121        9.6817623104
 Pt         4.1724598746        4.0557030763        9.6801395984
 Pt         5.6086254601        1.5987910979        9.6760906578
 Pt         6.9687340774        4.0173647959        9.5872640429
 Pt         5.6046996897        6.5163612554        9.6622947032
 Pt         7.0296432003        8.9318977246        9.6666496869
 Pt         8.4390514512        6.5353224799        9.6480797651
 Pt         9.8452412118        8.9368403472        9.6673743405
 Pt         8.4351727685        1.5912419877        9.6452966871
 Pt         9.9086516336        4.0145642324        9.5959861196
 Pt        11.2667618067        1.5993943442        9.6764469882
 Pt        12.6981884278        4.0517767468        9.6787163585
 Pt        11.2710860506        6.5181460804        9.6646704751
 Pt        12.6473837487        8.9277968738        9.6666586124
 Pt        14.0577333984        6.4938278819        9.6670263247
 Pt        15.4735010541        8.9287830701        9.6693940557
  O         8.4350204381        4.0685041545       10.8854641638
      49
 i =       3, E =    -5829.8119932925
 Pt         0.0004404129        0.0001700344        5.0021689010
 Pt         1.4063435347        2.4354900688        5.0010160622
 Pt         2.8124413412        0.0002830394        5.0027032211
 Pt         4.2183444630        2.4356030737        5.0015503823
 Pt         2.8122466465        4.8708101031        4.9998632234
 Pt         4.2181497683        7.3061301374        4.9987103846
 Pt         5.6242475847        4.8709231080        5.0003975435
 Pt         7.0301507065        7.3062431423        4.9992447047
 Pt         5.6244422794        0.0003960443        5.0032375412
 Pt         7.0303454012        2.4357160786        5.0020847024
 Pt         8.4364432076        0.0005090492        5.0037718614
 Pt         9.8423463294        2.4358290835        5.0026190225
 Pt         8.4362485130        4.8710361129        5.0009318636
 Pt         9.8421516348        7.3063561473        4.9997790248
 Pt        11.2482494512        4.8711491178        5.0014661837
 Pt        12.6541525630        7.3064691522        5.0003133449
 Pt         5.6060201054        3.2554133366        7.3557397792
 Pt         4.2139107284        0.8111042491        7.3409267898
 Pt         2.8107952824        3.2508349076        7.3409005710
 Pt         8.4360559463        8.1208294749        7.3356619037
 Pt         7.0229510332        5.6956758730        7.3213379335
 Pt         5.6263597486        8.1174086602        7.3293570924
 Pt        11.2642653343        3.2590702787        7.3578077979
 Pt         9.8431438678        0.8050978875        7.3351613264
 Pt         8.4352867368        3.2463567578        7.3170061258
 Pt        14.0604045567        8.1140321362        7.3410060942
 Pt        12.6584806260        5.6864717355        7.3338899456
 Pt        11.2446788600        8.1176027535        7.3314475074
 Pt         1.4101033842        0.8122645749        7.3383034772
 Pt         4.2103504334        5.6864239474        7.3326540720
 Pt         7.0308368139        0.7994330520        7.3345972300
 Pt         9.8513677505        5.6995370826        7.3258319711
 Pt         2.8169060652        1.6174162754        9.6832923448
 Pt         4.1902197659        4.0526391785        9.6788318672
 Pt         5.6073727284        1.5983160524        9.6736093692
 Pt         6.9528757973        4.0130672836        9.5669248404
 Pt         5.6050088683        6.5113816425        9.6599453069
 Pt         7.0328662462        8.9327888649        9.6660649434
 Pt         8.4405628288        6.5364562813        9.6421535924
 Pt         9.8429465998        8.9352641404        9.6694314980
 Pt         8.4326443996        1.5762189704        9.6418928072
 Pt         9.9277579308        4.0066431040        9.5729662331
 Pt        11.2685055557        1.5975390727        9.6739276412
 Pt        12.6840005772        4.0527513559        9.6776866849
 Pt        11.2686123719        6.5127261913        9.6619301930
 Pt        12.6522439279        8.9270118952        9.6662800072
 Pt        14.0594186790        6.4966347971        9.6688987403
 Pt        15.4709090128        8.9297586132        9.6678312318
  O         8.4346516687        4.0706356476       10.9444554476
      49
 i =       4, E =    -5829.8135456784
 Pt         0.0004500948        0.0001737724        5.0022165813
 Pt         1.4063510754        2.4354950313        5.0010383989
 Pt         2.8124510208        0.0002892616        5.0027626477
 Pt         4.2183520014        2.4356105205        5.0015844653
 Pt         2.8122520460        4.8708162902        4.9998602165
 Pt         4.2181530267        7.3061375491        4.9986820341
 Pt         5.6242529820        4.8709317794        5.0004062830
 Pt         7.0301539627        7.3062530383        4.9992281006
 Pt         5.6244519568        0.0004047508        5.0033087141
 Pt         7.0303529374        2.4357260097        5.0021305318
 Pt         8.4364528828        0.0005202400        5.0038547806
 Pt         9.8423538634        2.4358414989        5.0026765982
 Pt         8.4362539080        4.8710472686        5.0009523494
 Pt         9.8421548887        7.3063685275        4.9997741670
 Pt        11.2482548440        4.8711627578        5.0014984158
 Pt        12.6541558147        7.3064840167        5.0003202334
 Pt         5.6035032787        3.2553624586        7.3537836122
 Pt         4.2118355953        0.8121546487        7.3364797752
 Pt         2.8121068340        3.2503729301        7.3420392842
 Pt         8.4361736683        8.1219158835        7.3344956007
 Pt         7.0204162490        5.7039951699        7.3196523167
 Pt         5.6263542802        8.1185448688        7.3297714951
 Pt        11.2690428888        3.2594896145        7.3569427138
 Pt         9.8431254081        0.8020412248        7.3309720040
 Pt         8.4363058759        3.2431689033        7.3071165713
 Pt        14.0593439720        8.1141162989        7.3386442056
 Pt        12.6600809597        5.6880690034        7.3333419568
 Pt        11.2466305238        8.1159306158        7.3306861377
 Pt         1.4101339827        0.8138394329        7.3407771716
 Pt         4.2095812169        5.6870195084        7.3339699991
 Pt         7.0281986929        0.8031579059        7.3324742222
 Pt         9.8497818132        5.6955135298        7.3258165442
 Pt         2.8122953183        1.6165480838        9.6816845474
 Pt         4.1907389962        4.0521620264        9.6813132764
 Pt         5.6066681884        1.5952279896        9.6742409933
 Pt         6.9851442913        4.0026592378        9.5949234720
 Pt         5.6067202049        6.5126048993        9.6552900937
 Pt         7.0332036566        8.9355613071        9.6664586608
 Pt         8.4385313254        6.5352308473        9.6383115544
 Pt         9.8439978271        8.9347282558        9.6686346447
 Pt         8.4349552326        1.5709711784        9.6366022346
 Pt         9.8966288645        4.0033223314        9.5893464956
 Pt        11.2737591413        1.5942956781        9.6713435801
 Pt        12.6845016842        4.0543270948        9.6789829059
 Pt        11.2682133595        6.5099862081        9.6592219357
 Pt        12.6526472104        8.9280783617        9.6683832117
 Pt        14.0611613150        6.4971325586        9.6721574608
 Pt        15.4709844079        8.9256675607        9.6647096854
  O         8.4333241118        4.0684506125       10.9387340722
      49
 i =       5, E =    -5829.8136516470
 Pt         0.0004579634        0.0001768103        5.0022553318
 Pt         1.4063572039        2.4354990645        5.0010565523
 Pt         2.8124588876        0.0002943185        5.0028109446
 Pt         4.2183581280        2.4356165726        5.0016121651
 Pt         2.8122564343        4.8708213186        4.9998577728
 Pt         4.2181556748        7.3061435728        4.9986589933
 Pt         5.6242573685        4.8709388268        5.0004133856
 Pt         7.0301566090        7.3062610809        4.9992146061
 Pt         5.6244598218        0.0004118267        5.0033665574
 Pt         7.0303590622        2.4357340808        5.0021677779
 Pt         8.4364607459        0.0005293348        5.0039221702
 Pt         9.8423599864        2.4358515890        5.0027233907
 Pt         8.4362582927        4.8710563350        5.0009689984
 Pt         9.8421575332        7.3063785891        4.9997702189
 Pt        11.2482592269        4.8711738431        5.0015246112
 Pt        12.6541584573        7.3064960973        5.0003258318
 Pt         5.6082066115        3.2602348114        7.3652553265
 Pt         4.2113311951        0.8147171166        7.3363086535
 Pt         2.8129586432        3.2506098347        7.3426879975
 Pt         8.4369961450        8.1229717567        7.3321466716
 Pt         7.0171623471        5.7002512439        7.3244140763
 Pt         5.6264462383        8.1202547704        7.3278048056
 Pt        11.2660567400        3.2605771709        7.3637479370
 Pt         9.8439297223        0.8000652145        7.3289142698
 Pt         8.4343759242        3.2449669961        7.3029742177
 Pt        14.0591213760        8.1132810216        7.3407852484
 Pt        12.6620278616        5.6872583458        7.3339576020
 Pt        11.2456341994        8.1177240422        7.3301002165
 Pt         1.4107773651        0.8130630484        7.3390536942
 Pt         4.2100540935        5.6861256103        7.3346053913
 Pt         7.0261922517        0.8023719429        7.3314763822
 Pt         9.8500123306        5.6943421080        7.3242564724
 Pt         2.8138163157        1.6182002730        9.6826468698
 Pt         4.1981039218        4.0522698770        9.6800143265
 Pt         5.6061028980        1.5944794185        9.6720224492
 Pt         6.9706971385        3.9965474451        9.5815568946
 Pt         5.6108762256        6.5100607558        9.6540510123
 Pt         7.0341055494        8.9364156282        9.6665330063
 Pt         8.4369529076        6.5349869227        9.6332722359
 Pt         9.8446283521        8.9360449087        9.6665611174
 Pt         8.4418106574        1.5662569502        9.6329588117
 Pt         9.8991695766        4.0028473754        9.5786220085
 Pt        11.2714384681        1.5941007061        9.6694147120
 Pt        12.6795418459        4.0536922871        9.6809160385
 Pt        11.2676223014        6.5089134942        9.6589225981
 Pt        12.6527116791        8.9277553976        9.6667627968
 Pt        14.0624391660        6.4980272323        9.6727773669
 Pt        15.4707454164        8.9235993438        9.6635586018
  O         8.4374088381        4.0653698454       10.9766457520
      49
 i =       6, E =    -5829.8139151846
 Pt         0.0004637019        0.0001790258        5.0022835920
 Pt         1.4063616733        2.4355020058        5.0010697913
 Pt         2.8124646247        0.0002980064        5.0028461669
 Pt         4.2183625961        2.4356209864        5.0016323662
 Pt         2.8122596347        4.8708249857        4.9998559907
 Pt         4.2181576060        7.3061479657        4.9986421900
 Pt         5.6242605675        4.8709439663        5.0004185655
 Pt         7.0301585389        7.3062669463        4.9992047648
 Pt         5.6244655576        0.0004169870        5.0034087417
 Pt         7.0303635290        2.4357399670        5.0021949411
 Pt         8.4364664804        0.0005359676        5.0039713166
 Pt         9.8423644518        2.4358589476        5.0027575159
 Pt         8.4362614904        4.8710629469        5.0009811404
 Pt         9.8421594617        7.3063859269        4.9997673397
 Pt        11.2482624232        4.8711819275        5.0015437152
 Pt        12.6541603846        7.3065049075        5.0003299146
 Pt         5.6091579745        3.2599417261        7.3640670065
 Pt         4.2115981192        0.8181506206        7.3362678171
 Pt         2.8131484300        3.2518283139        7.3423587462
 Pt         8.4378669371        8.1210424781        7.3308380742
 Pt         7.0167903127        5.6996362517        7.3243608344
 Pt         5.6259892812        8.1207167195        7.3273345068
 Pt        11.2646006489        3.2592485451        7.3637415639
 Pt         9.8443650220        0.8018778853        7.3272123432
 Pt         8.4345091340        3.2441238568        7.3013485081
 Pt        14.0598612623        8.1129176812        7.3412831979
 Pt        12.6634833969        5.6868555585        7.3348072514
 Pt        11.2457825843        8.1193803131        7.3295690541
 Pt         1.4114829982        0.8148923051        7.3373342993
 Pt         4.2102127645        5.6860028457        7.3337770670
 Pt         7.0260750743        0.8018771639        7.3304178995
 Pt         9.8505259927        5.6968348920        7.3218734569
 Pt         2.8137538539        1.6172437641        9.6824765134
 Pt         4.1979214124        4.0532111541        9.6808562574
 Pt         5.6053014647        1.5912426173        9.6731330671
 Pt         6.9870772213        3.9917149721        9.5954668773
 Pt         5.6125042793        6.5090054987        9.6533592340
 Pt         7.0337964084        8.9344471979        9.6672462695
 Pt         8.4369452524        6.5332035472        9.6339759165
 Pt         9.8436415739        8.9347011029        9.6661833843
 Pt         8.4436182125        1.5638311611        9.6317397424
 Pt         9.8807611576        3.9996253525        9.5935787290
 Pt        11.2693887988        1.5914642649        9.6701604088
 Pt        12.6780803039        4.0521466421        9.6836161447
 Pt        11.2650938559        6.5086919324        9.6560423988
 Pt        12.6515482240        8.9254151827        9.6660871572
 Pt        14.0629137224        6.4970699494        9.6744608029
 Pt        15.4705302014        8.9210317465        9.6639861461
  O         8.4374127274        4.0661111214       10.9662053700
      49
 i =       7, E =    -5829.8136281325
 Pt         0.0004655962        0.0001797572        5.0022929211
 Pt         1.4063631487        2.4355029768        5.0010741617
 Pt         2.8124665186        0.0002992239        5.0028577943
 Pt         4.2183640711        2.4356224434        5.0016390349
 Pt         2.8122606911        4.8708261963        4.9998554023
 Pt         4.2181582436        7.3061494159        4.9986366429
 Pt         5.6242616235        4.8709456630        5.0004202755
 Pt         7.0301591760        7.3062688825        4.9992015161
 Pt         5.6244674511        0.0004186905        5.0034226674
 Pt         7.0303650035        2.4357419101        5.0022039080
 Pt         8.4364683735        0.0005381572        5.0039875405
 Pt         9.8423659259        2.4358613768        5.0027687812
 Pt         8.4362625460        4.8710651296        5.0009851486
 Pt         9.8421600984        7.3063883492        4.9997663892
 Pt        11.2482634784        4.8711845963        5.0015500218
 Pt        12.6541610208        7.3065078159        5.0003312624
 Pt         5.6098884328        3.2597961935        7.3646458499
 Pt         4.2118610854        0.8187988831        7.3361947550
 Pt         2.8129267480        3.2525997264        7.3429061179
 Pt         8.4382753667        8.1217200092        7.3304378103
 Pt         7.0165022011        5.6987933604        7.3246756120
 Pt         5.6259404077        8.1209466053        7.3271572417
 Pt        11.2639807755        3.2601447881        7.3644199542
 Pt         9.8440621605        0.8021269250        7.3270605396
 Pt         8.4341561581        3.2442628659        7.3008131860
 Pt        14.0599382787        8.1126128438        7.3410678122
 Pt        12.6634440924        5.6870646356        7.3353168322
 Pt        11.2456800895        8.1200094720        7.3294530161
 Pt         1.4116556397        0.8146496895        7.3371328400
 Pt         4.2099938523        5.6862906959        7.3337137023
 Pt         7.0263000718        0.8013833560        7.3304673137
 Pt         9.8512000655        5.6972480500        7.3218704588
 Pt         2.8138583833        1.6173359923        9.6827923234
 Pt         4.1984060322        4.0528393764        9.6809342597
 Pt         5.6057529774        1.5907271132        9.6728413311
 Pt         6.9879373470        3.9912538807        9.5957523164
 Pt         5.6130047515        6.5081879436        9.6535523092
 Pt         7.0341438838        8.9336123585        9.6669724152
 Pt         8.4369492931        6.5324113328        9.6332938297
 Pt         9.8432448949        8.9346683994        9.6655286359
 Pt         8.4435117178        1.5621199679        9.6312732969
 Pt         9.8801590061        3.9985542617        9.5949952755
 Pt        11.2688068296        1.5909059864        9.6704212369
 Pt        12.6773424580        4.0515203885        9.6835781060
 Pt        11.2648113446        6.5082639556        9.6560284921
 Pt        12.6513843182        8.9248097390        9.6658472599
 Pt        14.0626535706        6.4968828488        9.6742616875
 Pt        15.4708736964        8.9206495457        9.6642561766
  O         8.4374375120        4.0657492081       10.9698398730
      49
 i =       8, E =    -5829.8135171957
 Pt         0.0004674858        0.0001804867        5.0023022267
 Pt         1.4063646204        2.4355039453        5.0010785211
 Pt         2.8124684078        0.0003004382        5.0028693924
 Pt         4.2183655423        2.4356238968        5.0016456867
 Pt         2.8122617449        4.8708274038        4.9998548155
 Pt         4.2181588795        7.3061508624        4.9986311099
 Pt         5.6242626769        4.8709473553        5.0004219811
 Pt         7.0301598115        7.3062708139        4.9991982755
 Pt         5.6244693398        0.0004203898        5.0034365580
 Pt         7.0303664743        2.4357438483        5.0022128524
 Pt         8.4364702617        0.0005403413        5.0040037236
 Pt         9.8423673963        2.4358637998        5.0027800180
 Pt         8.4362635989        4.8710673069        5.0009891467
 Pt         9.8421607335        7.3063907654        4.9997654411
 Pt        11.2482645309        4.8711872584        5.0015563124
 Pt        12.6541616554        7.3065107169        5.0003326067
 Pt         5.6104367833        3.2594517738        7.3650600636
 Pt         4.2120480374        0.8196773406        7.3359699777
 Pt         2.8125724195        3.2534340360        7.3435090242
 Pt         8.4387599453        8.1223144873        7.3299963996
 Pt         7.0162673709        5.6979741550        7.3247171716
 Pt         5.6257641491        8.1210607529        7.3269388484
 Pt        11.2635251163        3.2608482707        7.3651247099
 Pt         9.8437355021        0.8024721329        7.3268912846
 Pt         8.4336492943        3.2442023028        7.3002851846
 Pt        14.0598963733        8.1122442276        7.3408434319
 Pt        12.6634160750        5.6873871933        7.3358353418
 Pt        11.2457502948        8.1204033900        7.3293875601
 Pt         1.4117809457        0.8142563609        7.3371872238
 Pt         4.2098322244        5.6865883310        7.3337120051
 Pt         7.0264751405        0.8010121983        7.3305433452
 Pt         9.8515946566        5.6976022629        7.3216459748
 Pt         2.8138842583        1.6176268413        9.6829652955
 Pt         4.1987787129        4.0526208091        9.6810497102
 Pt         5.6064327524        1.5903194224        9.6726170399
 Pt         6.9886046597        3.9903592436        9.5962143244
 Pt         5.6133694336        6.5077078851        9.6535145567
 Pt         7.0344205766        8.9329435784        9.6667537741
 Pt         8.4372161498        6.5316768759        9.6325297067
 Pt         9.8432345400        8.9351256470        9.6649494241
 Pt         8.4436786920        1.5605245645        9.6308295243
 Pt         9.8795316950        3.9976637952        9.5963331992
 Pt        11.2683443279        1.5905703755        9.6704009295
 Pt        12.6769389429        4.0512271712        9.6837131096
 Pt        11.2646977323        6.5081207870        9.6560538136
 Pt        12.6513558667        8.9243697256        9.6655423948
 Pt        14.0624470549        6.4967761457        9.6739085469
 Pt        15.4711489236        8.9201530768        9.6644880507
  O         8.4374020541        4.0654144754       10.9730102039
      49
 i =       9, E =    -5829.8138086255
 Pt         0.0004682772        0.0001807923        5.0023061241
 Pt         1.4063652367        2.4355043509        5.0010803469
 Pt         2.8124691990        0.0003009468        5.0028742498
 Pt         4.2183661585        2.4356245055        5.0016484727
 Pt         2.8122621863        4.8708279096        4.9998545697
 Pt         4.2181591458        7.3061514682        4.9986287926
 Pt         5.6242631181        4.8709480641        5.0004226955
 Pt         7.0301600776        7.3062716228        4.9991969183
 Pt         5.6244701308        0.0004211014        5.0034423756
 Pt         7.0303670903        2.4357446601        5.0022165984
 Pt         8.4364710526        0.0005412560        5.0040105013
 Pt         9.8423680121        2.4358648146        5.0027847242
 Pt         8.4362640399        4.8710682187        5.0009908212