 DBCSR| CPU Multiplication driver                                           XSMM
 DBCSR| Multrec recursion limit                                              512
 DBCSR| Multiplication stack size                                           1000
 DBCSR| Maximum elements for images                                    UNLIMITED
 DBCSR| Multiplicative factor virtual images                                   1
 DBCSR| Use multiplication densification                                       T
 DBCSR| Multiplication size stacks                                             3
 DBCSR| Use memory pool for CPU allocation                                     F
 DBCSR| OMP: Current number of threads                                        12
 DBCSR| OMP: Max number of threads                                            12
 DBCSR| Split modifier for TAS multiplication algorithm                  1.0E+00


  **** **** ******  **  PROGRAM STARTED AT               2022-06-06 20:04:51.172
 ***** ** ***  *** **   PROGRAM STARTED ON                                pop-os
 **    ****   ******    PROGRAM STARTED BY                         woodrowwilson
 ***** **    ** ** **   PROGRAM PROCESS ID                                  2880
  **** **  *******  **  PROGRAM STARTED IN /home/woodrowwilson/Documents/Worksho
                                           ps/MSU-DFT-Catalysis-School/1_Gas-Pha
                                           se-Molecules/3a_H2O/2_Vibrational-Mod
                                           es

 CP2K| version string:                                          CP2K version 9.1
 CP2K| source code revision number:                                  git:d8d7100
 CP2K| cp2kflags: omp libint fftw3 libxc xsmm plumed2 spglib libvori libbqb     
 CP2K| is freely available from                            https://www.cp2k.org/
 CP2K| Program compiled at                       Wed May 25 08:10:51 PM CDT 2022
 CP2K| Program compiled on                                                pop-os
 CP2K| Program compiled for                                PopOS-x86-64-gfortran
 CP2K| Data directory path            /home/woodrowwilson/Programs/cp2k/9.1/data
 CP2K| Input file name                                             cp2k-PADE.inp

 GLOBAL| Force Environment number                                              1
 GLOBAL| Basis set file name                                           BASIS_SET
 GLOBAL| Potential file name                                      GTH_POTENTIALS
 GLOBAL| MM Potential file name                                     MM_POTENTIAL
 GLOBAL| Coordinate file name                                      __STD_INPUT__
 GLOBAL| Method name                                                        CP2K
 GLOBAL| Project name                                                    H2O-VIB
 GLOBAL| Run type                                           VIBRATIONAL_ANALYSIS
 GLOBAL| FFT library                                                       FFTW3
 GLOBAL| Diagonalization library                                       ScaLAPACK
 GLOBAL| Orthonormality check for eigenvectors                          DISABLED
 GLOBAL| Matrix multiplication library                                 ScaLAPACK
 GLOBAL| All-to-all communication in single precision                          F
 GLOBAL| FFTs using library dependent lengths                                  F
 GLOBAL| Grid backend                                                       AUTO
 GLOBAL| Global print level                                               MEDIUM
 GLOBAL| MPI I/O enabled                                                       T
 GLOBAL| Total number of message passing processes                             1
 GLOBAL| Number of threads for this process                                   12
 GLOBAL| This output is from process                                           0
 GLOBAL| Stack size for threads created by OpenMP (OMP_STACKSIZE)        default
 GLOBAL| CPU model name                 Intel(R) Core(TM) i7-9750H CPU @ 2.60GHz
 GLOBAL| CPUID                                                              1002

 MEMORY| system memory details [Kb]
 MEMORY|                        rank 0           min           max       average
 MEMORY| MemTotal             32580248      32580248      32580248      32580248
 MEMORY| MemFree              28796492      28796492      28796492      28796492
 MEMORY| Buffers                113724        113724        113724        113724
 MEMORY| Cached                2040172       2040172       2040172       2040172
 MEMORY| Slab                   196644        196644        196644        196644
 MEMORY| SReclaimable            91424         91424         91424         91424
 MEMORY| MemLikelyFree        31041812      31041812      31041812      31041812


 *** Fundamental physical constants (SI units) ***

 *** Literature: B. J. Mohr and B. N. Taylor,
 ***             CODATA recommended values of the fundamental physical
 ***             constants: 2006, Web Version 5.1
 ***             http://physics.nist.gov/constants

 Speed of light in vacuum [m/s]                             2.99792458000000E+08
 Magnetic constant or permeability of vacuum [N/A**2]       1.25663706143592E-06
 Electric constant or permittivity of vacuum [F/m]          8.85418781762039E-12
 Planck constant (h) [J*s]                                  6.62606896000000E-34
 Planck constant (h-bar) [J*s]                              1.05457162825177E-34
 Elementary charge [C]                                      1.60217648700000E-19
 Electron mass [kg]                                         9.10938215000000E-31
 Electron g factor [ ]                                     -2.00231930436220E+00
 Proton mass [kg]                                           1.67262163700000E-27
 Fine-structure constant                                    7.29735253760000E-03
 Rydberg constant [1/m]                                     1.09737315685270E+07
 Avogadro constant [1/mol]                                  6.02214179000000E+23
 Boltzmann constant [J/K]                                   1.38065040000000E-23
 Atomic mass unit [kg]                                      1.66053878200000E-27
 Bohr radius [m]                                            5.29177208590000E-11

 *** Conversion factors ***

 [u] -> [a.u.]                                              1.82288848426455E+03
 [Angstrom] -> [Bohr] = [a.u.]                              1.88972613288564E+00
 [a.u.] = [Bohr] -> [Angstrom]                              5.29177208590000E-01
 [a.u.] -> [s]                                              2.41888432650478E-17
 [a.u.] -> [fs]                                             2.41888432650478E-02
 [a.u.] -> [J]                                              4.35974393937059E-18
 [a.u.] -> [N]                                              8.23872205491840E-08
 [a.u.] -> [K]                                              3.15774647902944E+05
 [a.u.] -> [kJ/mol]                                         2.62549961709828E+03
 [a.u.] -> [kcal/mol]                                       6.27509468713739E+02
 [a.u.] -> [Pa]                                             2.94210107994716E+13
 [a.u.] -> [bar]                                            2.94210107994716E+08
 [a.u.] -> [atm]                                            2.90362800883016E+08
 [a.u.] -> [eV]                                             2.72113838565563E+01
 [a.u.] -> [Hz]                                             6.57968392072181E+15
 [a.u.] -> [1/cm] (wave numbers)                            2.19474631370540E+05
 [a.u./Bohr**2] -> [1/cm]                                   5.14048714338585E+03
 

 CELL_TOP| Volume [angstrom^3]:                                       512.000000
 CELL_TOP| Vector a [angstrom     8.000     0.000     0.000   |a| =     8.000000
 CELL_TOP| Vector b [angstrom     0.000     8.000     0.000   |b| =     8.000000
 CELL_TOP| Vector c [angstrom     0.000     0.000     8.000   |c| =     8.000000
 CELL_TOP| Angle (b,c), alpha [degree]:                                90.000000
 CELL_TOP| Angle (a,c), beta  [degree]:                                90.000000
 CELL_TOP| Angle (a,b), gamma [degree]:                                90.000000
 CELL_TOP| Numerically orthorhombic:                                         YES

 GENERATE|  Preliminary Number of Bonds generated:                             0
 GENERATE|  Achieved consistency in connectivity generation.

 CELL| Volume [angstrom^3]:                                           512.000000
 CELL| Vector a [angstrom]:       8.000     0.000     0.000   |a| =     8.000000
 CELL| Vector b [angstrom]:       0.000     8.000     0.000   |b| =     8.000000
 CELL| Vector c [angstrom]:       0.000     0.000     8.000   |c| =     8.000000
 CELL| Angle (b,c), alpha [degree]:                                    90.000000
 CELL| Angle (a,c), beta  [degree]:                                    90.000000
 CELL| Angle (a,b), gamma [degree]:                                    90.000000
 CELL| Numerically orthorhombic:                                             YES

 CELL_REF| Volume [angstrom^3]:                                       512.000000
 CELL_REF| Vector a [angstrom     8.000     0.000     0.000   |a| =     8.000000
 CELL_REF| Vector b [angstrom     0.000     8.000     0.000   |b| =     8.000000
 CELL_REF| Vector c [angstrom     0.000     0.000     8.000   |c| =     8.000000
 CELL_REF| Angle (b,c), alpha [degree]:                                90.000000
 CELL_REF| Angle (a,c), beta  [degree]:                                90.000000
 CELL_REF| Angle (a,b), gamma [degree]:                                90.000000
 CELL_REF| Numerically orthorhombic:                                         YES

 *******************************************************************************
 *******************************************************************************
 **                                                                           **
 **     #####                         ##              ##                      **
 **    ##   ##            ##          ##              ##                      **
 **   ##     ##                       ##            ######                    **
 **   ##     ##  ##   ##  ##   #####  ##  ##   ####   ##    #####    #####    **
 **   ##     ##  ##   ##  ##  ##      ## ##   ##      ##   ##   ##  ##   ##   **
 **   ##  ## ##  ##   ##  ##  ##      ####     ###    ##   ######   ######    **
 **    ##  ###   ##   ##  ##  ##      ## ##      ##   ##   ##       ##        **
 **     #######   #####   ##   #####  ##  ##  ####    ##    #####   ##        **
 **           ##                                                    ##        **
 **                                                                           **
 **                                                ... make the atoms dance   **
 **                                                                           **
 **            Copyright (C) by CP2K developers group (2000-2021)             **
 **                      J. Chem. Phys. 152, 194103 (2020)                    **
 **                                                                           **
 *******************************************************************************

 DFT| Spin unrestricted (spin-polarized) Kohn-Sham calculation               UKS
 DFT| Multiplicity                                                             1
 DFT| Number of spin states                                                    2
 DFT| Charge                                                                   0
 DFT| Self-interaction correction (SIC)                                       NO
 DFT| Cutoffs: density                                              1.000000E-10
 DFT|          gradient                                             1.000000E-10
 DFT|          tau                                                  1.000000E-10
 DFT|          cutoff_smoothing_range                               0.000000E+00
 DFT| XC density smoothing                                                  NONE
 DFT| XC derivatives                                                          PW
 FUNCTIONAL| ROUTINE=NEW
 FUNCTIONAL| PADE:
 FUNCTIONAL| S. Goedecker, M. Teter and J. Hutter, Phys. Rev. B 54, 1703 (1996) 

 QS| Method:                                                                 GPW
 QS| Density plane wave grid type                        NON-SPHERICAL FULLSPACE
 QS| Number of grid levels:                                                    4
 QS| Density cutoff [a.u.]:                                                170.0
 QS| Multi grid cutoff [a.u.]: 1) grid level                               170.0
 QS|                           2) grid level                                56.7
 QS|                           3) grid level                                18.9
 QS|                           4) grid level                                 6.3
 QS| Grid level progression factor:                                          3.0
 QS| Relative density cutoff [a.u.]:                                        20.0
 QS| Interaction thresholds: eps_pgf_orb:                                1.0E-05
 QS|                         eps_filter_matrix:                          0.0E+00
 QS|                         eps_core_charge:                            1.0E-12
 QS|                         eps_rho_gspace:                             1.0E-10
 QS|                         eps_rho_rspace:                             1.0E-10
 QS|                         eps_gvg_rspace:                             1.0E-05
 QS|                         eps_ppl:                                    1.0E-02
 QS|                         eps_ppnl:                                   1.0E-07


 ATOMIC KIND INFORMATION

  1. Atomic kind: O                                     Number of atoms:       1

     Orbital Basis Set                                             DZVP-GTH-PADE

       Number of orbital shell sets:                                           2
       Number of orbital shells:                                               5
       Number of primitive Cartesian functions:                                5
       Number of Cartesian basis functions:                                   14
       Number of spherical basis functions:                                   13
       Norm type:                                                              2

       Normalised Cartesian orbitals:

                        Set   Shell   Orbital            Exponent    Coefficient

                          1       1    2s                8.304404       0.526521
                                                         2.457945      -0.055011
                                                         0.759736      -0.404341
                                                         0.213639      -0.086026

                          1       2    3s                8.304404       0.000000
                                                         2.457945       0.000000
                                                         0.759736       0.000000
                                                         0.213639       0.223960

                          1       3    3px               8.304404      -2.000758
                                                         2.457945      -1.321077
                                                         0.759736      -0.480331
                                                         0.213639      -0.078647
                          1       3    3py               8.304404      -2.000758
                                                         2.457945      -1.321077
                                                         0.759736      -0.480331
                                                         0.213639      -0.078647
                          1       3    3pz               8.304404      -2.000758
                                                         2.457945      -1.321077
                                                         0.759736      -0.480331
                                                         0.213639      -0.078647

                          1       4    4px               8.304404       0.000000
                                                         2.457945       0.000000
                                                         0.759736       0.000000
                                                         0.213639       0.207033
                          1       4    4py               8.304404       0.000000
                                                         2.457945       0.000000
                                                         0.759736       0.000000
                                                         0.213639       0.207033
                          1       4    4pz               8.304404       0.000000
                                                         2.457945       0.000000
                                                         0.759736       0.000000
                                                         0.213639       0.207033

                          2       1    3dx2              0.800000       1.113825
                          2       1    3dxy              0.800000       1.929201
                          2       1    3dxz              0.800000       1.929201
                          2       1    3dy2              0.800000       1.113825
                          2       1    3dyz              0.800000       1.929201
                          2       1    3dz2              0.800000       1.113825

       Atomic covalent radius [Angstrom]:                                  0.730

       Atomic van der Waals radius [Angstrom]:                             1.520

     GTH Potential information for                                   GTH-PADE-q6

       Description:                       Goedecker-Teter-Hutter pseudopotential
                                           Goedecker et al., PRB 54, 1703 (1996)
                                          Hartwigsen et al., PRB 58, 3641 (1998)
                                                      Krack, TCA 114, 145 (2005)

       Gaussian exponent of the core charge distribution:               8.154466
       Electronic configuration (s p d ...):                               2   4

       Parameters of the local part of the GTH pseudopotential:

                          rloc        C1          C2          C3          C4
                        0.247621  -16.580318    2.395701

       Parameters of the non-local part of the GTH pseudopotential:

                   l      r(l)      h(i,j,l)

                   0    0.221786   18.266917
                   1    0.256829

  2. Atomic kind: H                                     Number of atoms:       2

     Orbital Basis Set                                             DZVP-GTH-PADE

       Number of orbital shell sets:                                           2
       Number of orbital shells:                                               3
       Number of primitive Cartesian functions:                                5
       Number of Cartesian basis functions:                                    5
       Number of spherical basis functions:                                    5
       Norm type:                                                              2

       Normalised Cartesian orbitals:

                        Set   Shell   Orbital            Exponent    Coefficient

                          1       1    1s                8.374435      -0.083834
                                                         1.805868      -0.155208
                                                         0.485253      -0.104875
                                                         0.165824      -0.128813

                          1       2    2s                8.374435       0.000000
                                                         1.805868       0.000000
                                                         0.485253       0.000000
                                                         0.165824       0.185202

                          2       1    2px               0.700000       0.912668
                          2       1    2py               0.700000       0.912668
                          2       1    2pz               0.700000       0.912668

       Atomic covalent radius [Angstrom]:                                  0.320

       Atomic van der Waals radius [Angstrom]:                             1.090

     GTH Potential information for                                   GTH-PADE-q1

       Description:                       Goedecker-Teter-Hutter pseudopotential
                                           Goedecker et al., PRB 54, 1703 (1996)
                                          Hartwigsen et al., PRB 58, 3641 (1998)
                                                      Krack, TCA 114, 145 (2005)

       Gaussian exponent of the core charge distribution:              12.500000
       Electronic configuration (s p d ...):                                   1

       Parameters of the local part of the GTH pseudopotential:

                          rloc        C1          C2          C3          C4
                        0.200000   -4.180237    0.725075


 MOLECULE KIND INFORMATION


 All atoms are their own molecule, skipping detailed information


 TOTAL NUMBERS AND MAXIMUM NUMBERS

  Total number of            - Atomic kinds:                                   2
                             - Atoms:                                          3
                             - Shell sets:                                     6
                             - Shells:                                        11
                             - Primitive Cartesian functions:                 15
                             - Cartesian basis functions:                     24
                             - Spherical basis functions:                     23

  Maximum angular momentum of- Orbital basis functions:                        2
                             - Local part of the GTH pseudopotential:          2
                             - Non-local part of the GTH pseudopotential:      0


 MODULE QUICKSTEP:  ATOMIC COORDINATES IN angstrom

 Atom  Kind  Element       X           Y           Z          Z(eff)       Mass
    1   1 O    8       4.776000    4.790000    4.000000       6.0000     15.9994
    2   2 H    1       5.776000    4.791000    4.000000       1.0000      1.0079
    3   2 H    1       4.442000    5.733000    4.000000       1.0000      1.0079




 SCF PARAMETERS         Density guess:                                    ATOMIC
                        --------------------------------------------------------
                        max_scf:                                              50
                        max_scf_history:                                       0
                        max_diis:                                              4
                        --------------------------------------------------------
                        eps_scf:                                        1.00E-08
                        eps_scf_history:                                0.00E+00
                        eps_diis:                                       1.00E-01
                        eps_eigval:                                     1.00E-05
                        --------------------------------------------------------
                        level_shift [a.u.]:                                 0.00
                        --------------------------------------------------------
                        Outer loop SCF in use 
                        No variables optimised in outer loop
                        eps_scf                                         1.00E-05
                        max_scf                                               50
                        No outer loop optimization
                        step_size                                       5.00E-01

 PW_GRID| Information for grid number                                          1
 PW_GRID| Cutoff [a.u.]                                                    170.0
 PW_GRID| spherical cutoff:                                                   NO
 PW_GRID|   Bounds   1            -45      44                Points:          90
 PW_GRID|   Bounds   2            -45      44                Points:          90
 PW_GRID|   Bounds   3            -45      44                Points:          90
 PW_GRID| Volume element (a.u.^3)  0.4740E-02     Volume (a.u.^3)      3455.1473
 PW_GRID| Grid span                                                    FULLSPACE

 PW_GRID| Information for grid number                                          2
 PW_GRID| Number of the reference grid                                         1
 PW_GRID| Cutoff [a.u.]                                                     56.7
 PW_GRID| spherical cutoff:                                                   NO
 PW_GRID|   Bounds   1            -27      26                Points:          54
 PW_GRID|   Bounds   2            -27      26                Points:          54
 PW_GRID|   Bounds   3            -27      26                Points:          54
 PW_GRID| Volume element (a.u.^3)  0.2194E-01     Volume (a.u.^3)      3455.1473
 PW_GRID| Grid span                                                    FULLSPACE

 PW_GRID| Information for grid number                                          3
 PW_GRID| Number of the reference grid                                         1
 PW_GRID| Cutoff [a.u.]                                                     18.9
 PW_GRID| spherical cutoff:                                                   NO
 PW_GRID|   Bounds   1            -15      14                Points:          30
 PW_GRID|   Bounds   2            -15      14                Points:          30
 PW_GRID|   Bounds   3            -15      14                Points:          30
 PW_GRID| Volume element (a.u.^3)  0.1280         Volume (a.u.^3)      3455.1473
 PW_GRID| Grid span                                                    FULLSPACE

 PW_GRID| Information for grid number                                          4
 PW_GRID| Number of the reference grid                                         1
 PW_GRID| Cutoff [a.u.]                                                      6.3
 PW_GRID| spherical cutoff:                                                   NO
 PW_GRID|   Bounds   1             -9       8                Points:          18
 PW_GRID|   Bounds   2             -9       8                Points:          18
 PW_GRID|   Bounds   3             -9       8                Points:          18
 PW_GRID| Volume element (a.u.^3)  0.5924         Volume (a.u.^3)      3455.1473
 PW_GRID| Grid span                                                    FULLSPACE

 POISSON| Solver                                                        PERIODIC
 POISSON| Periodicity                                                        XYZ

 RS_GRID| Information for grid number                                          1
 RS_GRID|   Bounds   1            -45      44                Points:          90
 RS_GRID|   Bounds   2            -45      44                Points:          90
 RS_GRID|   Bounds   3            -45      44                Points:          90

 RS_GRID| Information for grid number                                          2
 RS_GRID|   Bounds   1            -27      26                Points:          54
 RS_GRID|   Bounds   2            -27      26                Points:          54
 RS_GRID|   Bounds   3            -27      26                Points:          54

 RS_GRID| Information for grid number                                          3
 RS_GRID|   Bounds   1            -15      14                Points:          30
 RS_GRID|   Bounds   2            -15      14                Points:          30
 RS_GRID|   Bounds   3            -15      14                Points:          30

 RS_GRID| Information for grid number                                          4
 RS_GRID|   Bounds   1             -9       8                Points:          18
 RS_GRID|   Bounds   2             -9       8                Points:          18
 RS_GRID|   Bounds   3             -9       8                Points:          18

 *******************************************************************************
 *******************************************************************************
 **                                                                           **
 **  #  #   #    #                  #     #                      ##           **
 **  #  #        ###   # ##   ###  ####         ##   # #    ###   #           **
 **  #  #   #    #  #  ##    #  #   #     #    #  #  ## #  #  #   #           **
 **   ##    #    #  #  #     # ##   #     #    #  #  #  #  # ##   #           **
 **   ##    #    ###   #      # #    ##   #     ##   #  #   # #  ###          **
 **                                                                           **
 **   ##               ##                 #                                   **
 **  #  #  # #    ###   #    #  #   ###         ###                           **
 **  #  #  ## #  #  #   #    #  #  ##     #    ##                             **
 **  ####  #  #  # ##   #     ###    ##   #      ##  N. Replicas:           1 **
 **  #  #  #  #   # #  ###      #  ###    #    ###   N. Procs/Rep:          1 **
 **                           ##                                              **
 **                                       T. Laino  and F. Schiffmann         **
 **                                       2008 - 2015                         **
 *******************************************************************************
 *******************************************************************************

 REPLICA| layout of the replica grid, number of groups                         1
 REPLICA| layout of the replica grid, size of each group                       1
 REPLICA| MPI process to grid (group,rank) correspondence:
  (   0 :    0,   0)

 VIB| Vibrational Analysis Info
 VIB| REPLICA Nr.    1- Energy and Forces for particle:    1  coordinate: X + DX
 VIB|                                     Total energy:         -17.162943352009
 VIB|    ATOM                            X                Y                Z
 VIB|      O                       0.004260196      0.014277550      0.000000001           
 VIB|      H                      -0.019855955      0.008289938     -0.000000001           
 VIB|      H                       0.016678002     -0.021763022      0.000000001           
 VIB| REPLICA Nr.    1- Energy and Forces for particle:    1  coordinate: Y + DY
 VIB|                                     Total energy:         -17.162982609768
 VIB|    ATOM                            X                Y                Z
 VIB|      O                       0.010605752      0.008432181      0.000000001           
 VIB|      H                      -0.024394551      0.008477090      0.000000000           
 VIB|      H                       0.014878346     -0.016483582      0.000000000           
 VIB| REPLICA Nr.    1- Energy and Forces for particle:    1  coordinate: Z + DZ
 VIB|                                     Total energy:         -17.162871050432
 VIB|    ATOM                            X                Y                Z
 VIB|      O                       0.009351769      0.013058990     -0.000767402           
 VIB|      H                      -0.024156270      0.007985666      0.000066479           
 VIB|      H                       0.015785085     -0.020360255      0.000069341           
 VIB| REPLICA Nr.    1- Energy and Forces for particle:    2  coordinate: X + DX
 VIB|                                     Total energy:         -17.162612167307
 VIB|    ATOM                            X                Y                Z
 VIB|      O                       0.013500370      0.012826270      0.000000002           
 VIB|      H                      -0.028381420      0.008086044     -0.000000001           
 VIB|      H                       0.015889064     -0.020209555     -0.000000000           
 VIB| REPLICA Nr.    1- Energy and Forces for particle:    2  coordinate: Y + DY
 VIB|                                     Total energy:         -17.162952316623
 VIB|    ATOM                            X                Y                Z
 VIB|      O                       0.009682876      0.013552130      0.000000001           
 VIB|      H                      -0.024055951      0.007488042     -0.000000000           
 VIB|      H                       0.015382877     -0.020336898     -0.000000000           
 VIB| REPLICA Nr.    1- Energy and Forces for particle:    2  coordinate: Z + DZ
 VIB|                                     Total energy:         -17.162874380677
 VIB|    ATOM                            X                Y                Z
 VIB|      O                       0.009383299      0.013063265      0.000066422           
 VIB|      H                      -0.024156667      0.007988137     -0.000110850           
 VIB|      H                       0.015783727     -0.020349362      0.000044747           
 VIB| REPLICA Nr.    1- Energy and Forces for particle:    3  coordinate: X + DX
 VIB|                                     Total energy:         -17.163027835911
 VIB|    ATOM                            X                Y                Z
 VIB|      O                       0.010254197      0.012185465     -0.000000001           
 VIB|      H                      -0.024039054      0.007586559      0.000000000           
 VIB|      H                       0.014797747     -0.019070711      0.000000002           
 VIB| REPLICA Nr.    1- Energy and Forces for particle:    3  coordinate: Y + DY
 VIB|                                     Total energy:         -17.162652561865
 VIB|    ATOM                            X                Y                Z
 VIB|      O                       0.007986245      0.016799590      0.000000005           
 VIB|      H                      -0.024006053      0.008001299     -0.000000000           
 VIB|      H                       0.017030851     -0.024103870     -0.000000005           
 VIB| REPLICA Nr.    1- Energy and Forces for particle:    3  coordinate: Z + DZ
 VIB|                                     Total energy:         -17.162874371873
 VIB|    ATOM                            X                Y                Z
 VIB|      O                       0.009368069      0.013073989      0.000069333           
 VIB|      H                      -0.024145244      0.007988146      0.000044748           
 VIB|      H                       0.015787529     -0.020360092     -0.000112614           
 VIB| REPLICA Nr.    1- Energy and Forces for particle:    1  coordinate: X - DX
 VIB|                                     Total energy:         -17.162756877240
 VIB|    ATOM                            X                Y                Z
 VIB|      O                       0.014194109      0.011860216     -0.000000002           
 VIB|      H                      -0.028273387      0.007687930      0.000000003           
 VIB|      H                       0.014902771     -0.018932611     -0.000000000           
 VIB| REPLICA Nr.    1- Energy and Forces for particle:    1  coordinate: Y - DY
 VIB|                                     Total energy:         -17.162722167111
 VIB|    ATOM                            X                Y                Z
 VIB|      O                       0.008193129      0.017447456      0.000000004           
 VIB|      H                      -0.023918555      0.007500160     -0.000000002           
 VIB|      H                       0.016632058     -0.024084564     -0.000000000           
 VIB| REPLICA Nr.    1- Energy and Forces for particle:    1  coordinate: Z - DZ
 VIB|                                     Total energy:         -17.162871050432
 VIB|    ATOM                            X                Y                Z
 VIB|      O                       0.009351769      0.013058985      0.000767402           
 VIB|      H                      -0.024156269      0.007985670     -0.000066478           
 VIB|      H                       0.015785084     -0.020360253     -0.000069342           
 VIB| REPLICA Nr.    1- Energy and Forces for particle:    2  coordinate: X - DX
 VIB|                                     Total energy:         -17.163094542506
 VIB|    ATOM                            X                Y                Z
 VIB|      O                       0.005083112      0.013302200      0.000000000           
 VIB|      H                      -0.019748583      0.007889021     -0.000000001           
 VIB|      H                       0.015678291     -0.020489904      0.000000001           
 VIB| REPLICA Nr.    1- Energy and Forces for particle:    2  coordinate: Y - DY
 VIB|                                     Total energy:         -17.162792553191
 VIB|    ATOM                            X                Y                Z
 VIB|      O                       0.009080905      0.012575192      0.000000001           
 VIB|      H                      -0.024252975      0.008488035     -0.000000000           
 VIB|      H                       0.016182977     -0.020362091     -0.000000000           
 VIB| REPLICA Nr.    1- Energy and Forces for particle:    2  coordinate: Z - DZ
 VIB|                                     Total energy:         -17.162874380677
 VIB|    ATOM                            X                Y                Z
 VIB|      O                       0.009383299      0.013063272     -0.000066428           
 VIB|      H                      -0.024156669      0.007988134      0.000110856           
 VIB|      H                       0.015783729     -0.020349366     -0.000044745           
 VIB| REPLICA Nr.    1- Energy and Forces for particle:    3  coordinate: X - DX
 VIB|                                     Total energy:         -17.162712128077
 VIB|    ATOM                            X                Y                Z
 VIB|      O                       0.008478922      0.013938220      0.000000001           
 VIB|      H                      -0.024249830      0.008386675      0.000000001           
 VIB|      H                       0.016778817     -0.021622132     -0.000000001           
 VIB| REPLICA Nr.    1- Energy and Forces for particle:    3  coordinate: Y - DY
 VIB|                                     Total energy:         -17.163059130413
 VIB|    ATOM                            X                Y                Z
 VIB|      O                       0.010817602      0.009198841     -0.000000006           
 VIB|      H                      -0.024286416      0.007976116      0.000000002           
 VIB|      H                       0.014478491     -0.016467881      0.000000005           
 VIB| REPLICA Nr.    1- Energy and Forces for particle:    3  coordinate: Z - DZ
 VIB|                                     Total energy:         -17.162874371873
 VIB|    ATOM                            X                Y                Z
 VIB|      O                       0.009368076      0.013073983     -0.000069330           
 VIB|      H                      -0.024145250      0.007988148     -0.000044746           
 VIB|      H                       0.015787528     -0.020360088      0.000112611           
 VIB| 
  Minimum Structure - Energy and Forces:
 VIB|                                     Total energy:         -17.162874934717
 VIB|    ATOM                            X                Y                Z
 VIB|      O                       0.009372047      0.013063509      0.000000004           
 VIB|      H                      -0.024145642      0.007988238     -0.000000002           
 VIB|      H                       0.015783948     -0.020349706     -0.000000001           
 VIB| Hessian in cartesian coordinates

                    1            2            3            4            5
     1  O       17.030468    -4.136144    -0.000001   -57.492518    -4.111648
     2  O       -4.144221    15.455576    -0.000009     3.250753    -6.672793
     3  O       -0.000006     0.000005     2.631232    -0.000012    -0.000002
     4  H      -57.493704     3.251208     0.000010   234.924742    -5.361599
     5  H       -4.111905    -6.672735     0.000023    -5.361553    27.212716
     6  H        0.000030    -0.000017    -0.908136    -0.000000     0.000005
     7  H      -12.125389    11.978403    -0.000006    -5.735746    21.773058
     8  H       19.332592   -51.917098     0.000012    -7.629117    -0.685586
     9  H       -0.000006    -0.000003    -0.947243     0.000050     0.000003

                    6            7            8            9
     1  O       -0.000000   -12.125686    19.339057     0.000051
     2  O        0.000049    11.971865   -51.915505    -0.000044
     3  O       -0.907409     0.000009    -0.000075    -0.947116
     4  H       -0.000055    -5.735846    -7.629497    -0.000167
     5  H       -0.000084    21.773492    -0.685313     0.000040
     6  H        6.033253     0.000039     0.000052    -2.435395
     7  H        0.000057    53.910698   -69.457199    -0.000034
     8  H       -0.000109   -69.431631   207.797592     0.000135
     9  H       -2.435359    -0.000075     0.000247     6.129045
 VIB| Cartesian Low frequencies ----0.46336     0.74355      1.7325      4.5438    
 VIB| Cartesian Low frequencies ---  7.2630      8.5173      50.731      238.23    
 VIB| Cartesian Low frequencies ---  259.83    
 VIB| Eigenvectors before removal of rotations and translations

                    1            2            3            4            5
     1  O        0.916240    -0.222231     0.000000     0.000002     0.153752
     2  O        0.225119     0.911677    -0.000007     0.000006    -0.130067
     3  O        0.000003     0.000011     0.824849    -0.565305     0.000009
     4  H        0.229287    -0.055937     0.000000     0.000001     0.031756
     5  H        0.058878     0.246918     0.000001     0.000017     0.688652
     6  H       -0.000000    -0.000005     0.400173     0.593052     0.000035
     7  H        0.225357    -0.069436    -0.000003    -0.000014    -0.642394
     8  H        0.054788     0.224809    -0.000003    -0.000004    -0.267438
     9  H        0.000000    -0.000001     0.399357     0.573340    -0.000064

                    6            7            8            9
     1  O        0.000011    -0.159049    -0.102941     0.227125
     2  O       -0.000012    -0.230056    -0.152529    -0.158297
     3  O       -0.007404    -0.000000    -0.000000    -0.000000
     4  H        0.000003     0.003587     0.685553    -0.687964
     5  H        0.000047     0.677949    -0.040907    -0.005895
     6  H       -0.698677    -0.000001    -0.000000     0.000000
     7  H       -0.000046     0.639859    -0.273430    -0.218034
     8  H       -0.000020     0.229630     0.647856     0.634420
     9  H        0.715399     0.000001    -0.000000     0.000001
 VIB| Frequencies after removal of the rotations and translations
 VIB| Internal  Low frequencies ---  50.731      238.23      259.81    

 VIB|                        NORMAL MODES - CARTESIAN DISPLACEMENTS
 VIB|
 VIB|                         1                    2                    3
 VIB|Frequency (cm^-1)  1563.220103          3387.539600          3537.614356
 VIB|Intensities           0.000000             0.000000             0.000000
 VIB|Red.Masses (a.u.)     1.087418             1.041010             1.086822
 VIB|Frc consts (a.u.)     0.016625             0.350966             0.435785
  ATOM  EL             X     Y     Z        X     Y     Z        X     Y     Z  
     1  O             0.04  0.06  0.00    -0.03 -0.04  0.00    -0.06  0.04  0.00
     2  H            -0.00 -0.71  0.00     0.70 -0.04  0.00     0.71  0.00  0.00
     3  H            -0.66 -0.24  0.00    -0.28  0.66  0.00     0.23 -0.66  0.00



 VIB|                        NORMAL MODES - THERMOCHEMICAL DATA
 VIB|
 VIB|              Symmetry number:                                                 1
 VIB|              Temperature [K]:                                            300.00
 VIB|              Pressure [Pa]:                                           100000.00


 VIB|              Electronic energy (U) [kJ/mol]:                    -45061.12156940
 VIB|              Zero-point correction [kJ/mol]:                        50.77175139
 VIB|              Entropy [kJ/(mol K)]:                                   0.17982465
 VIB|              Enthalpy correction (H-U) [kJ/mol]:                    59.51233175
 VIB|              Gibbs energy correction [kJ/mol]:                       5.56493550
 VIB|              Heat capacity [kJ/(mol*K)]:                             0.02936046



 -------------------------------------------------------------------------------
 -                                                                             -
 -                                DBCSR STATISTICS                             -
 -                                                                             -
 -------------------------------------------------------------------------------
 COUNTER                                    TOTAL       BLAS       SMM       ACC
 flops    13 x     5 x     4               403520       0.0%    100.0%      0.0%
 flops     5 x    13 x     4               403520       0.0%    100.0%      0.0%
 flops     5 x     5 x     4               465600       0.0%    100.0%      0.0%
 flops     4 x     4 x     4               520704       0.0%    100.0%      0.0%
 flops    13 x    13 x     4              1049152       0.0%    100.0%      0.0%
 flops     5 x     4 x     4              1059200       0.0%    100.0%      0.0%
 flops     5 x     4 x    23              1288000       0.0%    100.0%      0.0%
 flops     5 x     4 x     5              1328800       0.0%    100.0%      0.0%
 flops    13 x     4 x     4              1376960       0.0%    100.0%      0.0%
 flops    13 x     4 x    23              1674400       0.0%    100.0%      0.0%
 flops    13 x     4 x     5              1727440       0.0%    100.0%      0.0%
 flops     5 x     4 x    13              1727440       0.0%    100.0%      0.0%
 flops     4 x     4 x    23              1948928       0.0%    100.0%      0.0%
 flops    13 x     4 x    13              2245672       0.0%    100.0%      0.0%
 flops inhomo. stacks                           0       0.0%      0.0%      0.0%
 flops total                        17.219336E+06       0.0%    100.0%      0.0%
 flops max/rank                     17.219336E+06       0.0%    100.0%      0.0%
 matmuls inhomo. stacks                         0       0.0%      0.0%      0.0%
 matmuls total                              38351       0.0%    100.0%      0.0%
 number of processed stacks                 32592       0.0%    100.0%      0.0%
 average stack size                                     0.0       1.2       0.0
 marketing flops                    18.209544E+06
 -------------------------------------------------------------------------------
 # multiplications                          13201
 max memory usage/rank             724.688896E+06
 # max total images/rank                        1
 # max 3D layers                                1
 # MPI messages exchanged                       0
 -------------------------------------------------------------------------------

 -------------------------------------------------------------------------------
 -                                                                             -
 -                                GRID STATISTICS                              -
 -                                                                             -
 -------------------------------------------------------------------------------
 LP    KERNEL             BACKEND                              COUNT     PERCENT
 0     collocate ortho    REF                                  42700      18.36%
 1     collocate ortho    REF                                  41300      17.76%
 0     integrate ortho    REF                                  40382      17.37%
 1     integrate ortho    REF                                  39058      16.80%
 2     collocate ortho    REF                                  24500      10.54%
 2     integrate ortho    REF                                  23170       9.96%
 3     integrate ortho    REF                                   8938       3.84%
 3     collocate ortho    REF                                   7000       3.01%
 4     integrate ortho    REF                                   2904       1.25%
 5     integrate ortho    REF                                   1330       0.57%
 4     collocate ortho    REF                                    700       0.30%
 6     integrate ortho    REF                                    380       0.16%
 0     collocate general  REF                                     57       0.02%
 3     integrate general  REF                                     57       0.02%
 7     integrate ortho    REF                                     38       0.02%
 -------------------------------------------------------------------------------

 MEMORY| Estimated peak process memory [MiB]                                 692

 -------------------------------------------------------------------------------
 ----                             MULTIGRID INFO                            ----
 -------------------------------------------------------------------------------
 count for grid        1:           1528          cutoff [a.u.]          170.00
 count for grid        2:            872          cutoff [a.u.]           56.67
 count for grid        3:            384          cutoff [a.u.]           18.89
 count for grid        4:             24          cutoff [a.u.]            6.30
 total gridlevel count  :           2808

 -------------------------------------------------------------------------------
 -                                                                             -
 -                           R E F E R E N C E S                               -
 -                                                                             -
 -------------------------------------------------------------------------------
 
 CP2K version 9.1, the CP2K developers group (2021).
 CP2K is freely available from https://www.cp2k.org/ .

 Kuehne,Thomas D.; Iannuzzi,Marcella; Del Ben,Mauro;
 Rybkin,Vladimir V.; Seewald,Patrick; Stein,Frederick; Laino,Teodoro;
 Khaliullin,Rustam Z.; Schuett,Ole; Schiffmann,Florian; Golze,Dorothea;
 Wilhelm,Jan; Chulkov,Sergey; Bani-Hashemian,Mohammad Hossein;
 Weber,Valery; Borstnik,Urban; Taillefumier,Mathieu;
 Jakobovits,Alice Shoshana; Lazzaro,Alfio; Pabst,Hans; Mueller,Tiziano;
 Schade,Robert; Guidon,Manuel; Andermatt,Samuel; Holmberg,Nico;
 Schenter,Gregory K.; Hehn,Anna; Bussy,Augustin; Belleflamme,Fabian;
 Tabacchi,Gloria; Gloess,Andreas; Lass,Michael; Bethune,Iain;
 Mundy,Christopher J.; Plessl,Christian; Watkins,Matt;
 VandeVondele,Joost; Krack,Matthias; Hutter,Juerg. 
 The Journal of Chemical Physics, 152 (19), (2020). 
 CP2K: An electronic structure and molecular dynamics software package -
 Quickstep: Efficient and accurate electronic structure calculations.
 https://doi.org/10.1063/5.0007045

 Schuett, Ole; Messmer, Peter; Hutter, Juerg; VandeVondele, Joost. 
 Electronic Structure Calculations on Graphics Processing Units, John
 Wiley & Sons, Ltd, 173-190 (2016). 
 GPU-Accelerated Sparse Matrix-Matrix Multiplication for
 Linear Scaling Density Functional Theory.
 https://doi.org/10.1002/9781118670712.ch8

 Heinecke, A; Henry, G; Hutchinson, M; Pabst, H. 
 Proceedings of Intl. Supercomputing Conference, 981-991 (2016). 
 LIBXSMM: Accelerating Small Matrix Multiplications
 by Runtime Code Generation.
 https://doi.org/10.1109/SC.2016.83

 Borstnik, U; VandeVondele, J; Weber, V; Hutter, J. 
 PARALLEL COMPUTING, 40 (5-6), 47-58 (2014). 
 Sparse matrix multiplication: The distributed block-compressed sparse
 row library.
 https://doi.org/10.1016/j.parco.2014.03.012

 Hutter, J; Iannuzzi, M; Schiffmann, F; VandeVondele, J. 
 WIREs Comput Mol Sci., 4 (1), 15-25 (2014). 
 CP2K: atomistic simulations of condensed matter systems.
 https://doi.org/10.1002/wcms.1159

 Kuhne, TD; Krack, M; Mohamed, FR; Parrinello, M. 
 PHYSICAL REVIEW LETTERS, 98 (6), 066401 (2007). 
 Efficient and accurate Car-Parrinello-like approach to
 Born-Oppenheimer molecular dynamics.
 https://doi.org/10.1103/PhysRevLett.98.066401

 Krack, M. 
 THEORETICAL CHEMISTRY ACCOUNTS, 114 (1-3), 145-152 (2005). 
 Pseudopotentials for H to Kr optimized for gradient-corrected
 exchange-correlation functionals.
 https://doi.org/10.1007/s00214-005-0655-y

 VandeVondele, J; Krack, M; Mohamed, F; Parrinello, M; Chassaing, T;
 Hutter, J. COMPUTER PHYSICS COMMUNICATIONS, 167 (2), 103-128 (2005). 
 QUICKSTEP: Fast and accurate density functional calculations using a
 mixed Gaussian and plane waves approach.
 https://doi.org/10.1016/j.cpc.2004.12.014

 Frigo, M; Johnson, SG. 
 PROCEEDINGS OF THE IEEE, 93 (2), 216-231 (2005). 
 The design and implementation of FFTW3.
 https://doi.org/10.1109/JPROC.2004.840301

 Kolafa, J. 
 JOURNAL OF COMPUTATIONAL CHEMISTRY, 25 (3), 335-342 (2004). 
 Time-reversible always stable predictor-corrector method for
 molecular dynamics of polarizable molecules.
 https://doi.org/10.1002/jcc.10385

 VandeVondele, J; Hutter, J. 
 JOURNAL OF CHEMICAL PHYSICS, 118 (10), 4365-4369 (2003). 
 An efficient orbital transformation method for electronic structure
 calculations.
 https://doi.org/10.1063/1.1543154

 Hartwigsen, C; Goedecker, S; Hutter, J. 
 PHYSICAL REVIEW B, 58 (7), 3641-3662 (1998). 
 Relativistic separable dual-space Gaussian pseudopotentials from H to Rn.
 https://doi.org/10.1103/PhysRevB.58.3641

 Lippert, G; Hutter, J; Parrinello, M. 
 MOLECULAR PHYSICS, 92 (3), 477-487 (1997). 
 A hybrid Gaussian and plane wave density functional scheme.
 https://doi.org/10.1080/002689797170220

 Goedecker, S; Teter, M; Hutter, J. 
 PHYSICAL REVIEW B, 54 (3), 1703-1710 (1996). 
 Separable dual-space Gaussian pseudopotentials.
 https://doi.org/10.1103/PhysRevB.54.1703


 -------------------------------------------------------------------------------
 -                                                                             -
 -                                T I M I N G                                  -
 -                                                                             -
 -------------------------------------------------------------------------------
 SUBROUTINE                       CALLS  ASD         SELF TIME        TOTAL TIME
                                MAXIMUM       AVERAGE  MAXIMUM  AVERAGE  MAXIMUM
 CP2K                                 1  1.0    0.042    0.042   95.317   95.317
 vb_anal                              1  2.0   94.882   94.882   95.104   95.104
 -------------------------------------------------------------------------------

 The number of warnings for this run is : 0
 
 -------------------------------------------------------------------------------
  **** **** ******  **  PROGRAM ENDED AT                 2022-06-06 20:06:26.683
 ***** ** ***  *** **   PROGRAM RAN ON                                    pop-os
 **    ****   ******    PROGRAM RAN BY                             woodrowwilson
 ***** **    ** ** **   PROGRAM PROCESS ID                                  2880
  **** **  *******  **  PROGRAM STOPPED IN /home/woodrowwilson/Documents/Worksho
                                           ps/MSU-DFT-Catalysis-School/1_Gas-Pha
                                           se-Molecules/3a_H2O/2_Vibrational-Mod
                                           es
