
  **** **** ******  **  PROGRAM STARTED AT               2022-06-06 20:04:37.059
 ***** ** ***  *** **   PROGRAM STARTED ON                                pop-os
 **    ****   ******    PROGRAM STARTED BY                         woodrowwilson
 ***** **    ** ** **   PROGRAM PROCESS ID                                  2847
  **** **  *******  **  PROGRAM STARTED IN /home/woodrowwilson/Documents/Worksho
                                           ps/MSU-DFT-Catalysis-School/1_Gas-Pha
                                           se-Molecules/3a_H2O/2_Vibrational-Mod
                                           es

 CP2K| version string:                                          CP2K version 9.1
 CP2K| source code revision number:                                  git:d8d7100
 CP2K| cp2kflags: omp libint fftw3 libxc xsmm plumed2 spglib libvori libbqb     
 CP2K| is freely available from                            https://www.cp2k.org/
 CP2K| Program compiled at                       Wed May 25 08:10:51 PM CDT 2022
 CP2K| Program compiled on                                                pop-os
 CP2K| Program compiled for                                PopOS-x86-64-gfortran
 CP2K| Data directory path            /home/woodrowwilson/Programs/cp2k/9.1/data
 CP2K| Input file name                                           H2O-VIB-r-0.inp

 GLOBAL| Force Environment number                                              1
 GLOBAL| Basis set file name                                           BASIS_SET
 GLOBAL| Potential file name                                      GTH_POTENTIALS
 GLOBAL| MM Potential file name                                     MM_POTENTIAL
 GLOBAL| Coordinate file name                                      __STD_INPUT__
 GLOBAL| Method name                                                        CP2K
 GLOBAL| Project name                                                H2O-VIB-r-0
 GLOBAL| Run type                                           VIBRATIONAL_ANALYSIS
 GLOBAL| FFT library                                                       FFTW3
 GLOBAL| Diagonalization library                                       ScaLAPACK
 GLOBAL| Orthonormality check for eigenvectors                          DISABLED
 GLOBAL| Matrix multiplication library                                 ScaLAPACK
 GLOBAL| All-to-all communication in single precision                          F
 GLOBAL| FFTs using library dependent lengths                                  F
 GLOBAL| Grid backend                                                       AUTO
 GLOBAL| Global print level                                               MEDIUM
 GLOBAL| MPI I/O enabled                                                       T
 GLOBAL| Total number of message passing processes                             1
 GLOBAL| Number of threads for this process                                   12
 GLOBAL| This output is from process                                           0
 GLOBAL| Stack size for threads created by OpenMP (OMP_STACKSIZE)        default
 GLOBAL| CPU model name                 Intel(R) Core(TM) i7-9750H CPU @ 2.60GHz
 GLOBAL| CPUID                                                              1002

 MEMORY| system memory details [Kb]
 MEMORY|                        rank 0           min           max       average
 MEMORY| MemTotal             32580248      32580248      32580248      32580248
 MEMORY| MemFree              28741592      28741592      28741592      28741592
 MEMORY| Buffers                113648        113648        113648        113648
 MEMORY| Cached                2039280       2039280       2039280       2039280
 MEMORY| Slab                   196672        196672        196672        196672
 MEMORY| SReclaimable            91356         91356         91356         91356
 MEMORY| MemLikelyFree        30985876      30985876      30985876      30985876


 *** Fundamental physical constants (SI units) ***

 *** Literature: B. J. Mohr and B. N. Taylor,
 ***             CODATA recommended values of the fundamental physical
 ***             constants: 2006, Web Version 5.1
 ***             http://physics.nist.gov/constants

 Speed of light in vacuum [m/s]                             2.99792458000000E+08
 Magnetic constant or permeability of vacuum [N/A**2]       1.25663706143592E-06
 Electric constant or permittivity of vacuum [F/m]          8.85418781762039E-12
 Planck constant (h) [J*s]                                  6.62606896000000E-34
 Planck constant (h-bar) [J*s]                              1.05457162825177E-34
 Elementary charge [C]                                      1.60217648700000E-19
 Electron mass [kg]                                         9.10938215000000E-31
 Electron g factor [ ]                                     -2.00231930436220E+00
 Proton mass [kg]                                           1.67262163700000E-27
 Fine-structure constant                                    7.29735253760000E-03
 Rydberg constant [1/m]                                     1.09737315685270E+07
 Avogadro constant [1/mol]                                  6.02214179000000E+23
 Boltzmann constant [J/K]                                   1.38065040000000E-23
 Atomic mass unit [kg]                                      1.66053878200000E-27
 Bohr radius [m]                                            5.29177208590000E-11

 *** Conversion factors ***

 [u] -> [a.u.]                                              1.82288848426455E+03
 [Angstrom] -> [Bohr] = [a.u.]                              1.88972613288564E+00
 [a.u.] = [Bohr] -> [Angstrom]                              5.29177208590000E-01
 [a.u.] -> [s]                                              2.41888432650478E-17
 [a.u.] -> [fs]                                             2.41888432650478E-02
 [a.u.] -> [J]                                              4.35974393937059E-18
 [a.u.] -> [N]                                              8.23872205491840E-08
 [a.u.] -> [K]                                              3.15774647902944E+05
 [a.u.] -> [kJ/mol]                                         2.62549961709828E+03
 [a.u.] -> [kcal/mol]                                       6.27509468713739E+02
 [a.u.] -> [Pa]                                             2.94210107994716E+13
 [a.u.] -> [bar]                                            2.94210107994716E+08
 [a.u.] -> [atm]                                            2.90362800883016E+08
 [a.u.] -> [eV]                                             2.72113838565563E+01
 [a.u.] -> [Hz]                                             6.57968392072181E+15
 [a.u.] -> [1/cm] (wave numbers)                            2.19474631370540E+05
 [a.u./Bohr**2] -> [1/cm]                                   5.14048714338585E+03
 

 CELL_TOP| Volume [angstrom^3]:                                       512.000000
 CELL_TOP| Vector a [angstrom     8.000     0.000     0.000   |a| =     8.000000
 CELL_TOP| Vector b [angstrom     0.000     8.000     0.000   |b| =     8.000000
 CELL_TOP| Vector c [angstrom     0.000     0.000     8.000   |c| =     8.000000
 CELL_TOP| Angle (b,c), alpha [degree]:                                90.000000
 CELL_TOP| Angle (a,c), beta  [degree]:                                90.000000
 CELL_TOP| Angle (a,b), gamma [degree]:                                90.000000
 CELL_TOP| Numerically orthorhombic:                                         YES

 GENERATE|  Preliminary Number of Bonds generated:                             0
 GENERATE|  Achieved consistency in connectivity generation.

 CELL| Volume [angstrom^3]:                                           512.000000
 CELL| Vector a [angstrom]:       8.000     0.000     0.000   |a| =     8.000000
 CELL| Vector b [angstrom]:       0.000     8.000     0.000   |b| =     8.000000
 CELL| Vector c [angstrom]:       0.000     0.000     8.000   |c| =     8.000000
 CELL| Angle (b,c), alpha [degree]:                                    90.000000
 CELL| Angle (a,c), beta  [degree]:                                    90.000000
 CELL| Angle (a,b), gamma [degree]:                                    90.000000
 CELL| Numerically orthorhombic:                                             YES

 CELL_REF| Volume [angstrom^3]:                                       512.000000
 CELL_REF| Vector a [angstrom     8.000     0.000     0.000   |a| =     8.000000
 CELL_REF| Vector b [angstrom     0.000     8.000     0.000   |b| =     8.000000
 CELL_REF| Vector c [angstrom     0.000     0.000     8.000   |c| =     8.000000
 CELL_REF| Angle (b,c), alpha [degree]:                                90.000000
 CELL_REF| Angle (a,c), beta  [degree]:                                90.000000
 CELL_REF| Angle (a,b), gamma [degree]:                                90.000000
 CELL_REF| Numerically orthorhombic:                                         YES

 *******************************************************************************
 *******************************************************************************
 **                                                                           **
 **     #####                         ##              ##                      **
 **    ##   ##            ##          ##              ##                      **
 **   ##     ##                       ##            ######                    **
 **   ##     ##  ##   ##  ##   #####  ##  ##   ####   ##    #####    #####    **
 **   ##     ##  ##   ##  ##  ##      ## ##   ##      ##   ##   ##  ##   ##   **
 **   ##  ## ##  ##   ##  ##  ##      ####     ###    ##   ######   ######    **
 **    ##  ###   ##   ##  ##  ##      ## ##      ##   ##   ##       ##        **
 **     #######   #####   ##   #####  ##  ##  ####    ##    #####   ##        **
 **           ##                                                    ##        **
 **                                                                           **
 **                                                ... make the atoms dance   **
 **                                                                           **
 **            Copyright (C) by CP2K developers group (2000-2021)             **
 **                      J. Chem. Phys. 152, 194103 (2020)                    **
 **                                                                           **
 *******************************************************************************

 DFT| Spin unrestricted (spin-polarized) Kohn-Sham calculation               UKS
 DFT| Multiplicity                                                             1
 DFT| Number of spin states                                                    2
 DFT| Charge                                                                   0
 DFT| Self-interaction correction (SIC)                                       NO
 DFT| Cutoffs: density                                              1.000000E-10
 DFT|          gradient                                             1.000000E-10
 DFT|          tau                                                  1.000000E-10
 DFT|          cutoff_smoothing_range                               0.000000E+00
 DFT| XC density smoothing                                                  NONE
 DFT| XC derivatives                                                          PW
 FUNCTIONAL| ROUTINE=NEW
 FUNCTIONAL| PADE:
 FUNCTIONAL| S. Goedecker, M. Teter and J. Hutter, Phys. Rev. B 54, 1703 (1996) 

 QS| Method:                                                                 GPW
 QS| Density plane wave grid type                        NON-SPHERICAL FULLSPACE
 QS| Number of grid levels:                                                    4
 QS| Density cutoff [a.u.]:                                                170.0
 QS| Multi grid cutoff [a.u.]: 1) grid level                               170.0
 QS|                           2) grid level                                56.7
 QS|                           3) grid level                                18.9
 QS|                           4) grid level                                 6.3
 QS| Grid level progression factor:                                          3.0
 QS| Relative density cutoff [a.u.]:                                        20.0
 QS| Interaction thresholds: eps_pgf_orb:                                1.0E-05
 QS|                         eps_filter_matrix:                          0.0E+00
 QS|                         eps_core_charge:                            1.0E-12
 QS|                         eps_rho_gspace:                             1.0E-10
 QS|                         eps_rho_rspace:                             1.0E-10
 QS|                         eps_gvg_rspace:                             1.0E-05
 QS|                         eps_ppl:                                    1.0E-02
 QS|                         eps_ppnl:                                   1.0E-07


 ATOMIC KIND INFORMATION

  1. Atomic kind: O                                     Number of atoms:       1

     Orbital Basis Set                                             DZVP-GTH-PADE

       Number of orbital shell sets:                                           2
       Number of orbital shells:                                               5
       Number of primitive Cartesian functions:                                5
       Number of Cartesian basis functions:                                   14
       Number of spherical basis functions:                                   13
       Norm type:                                                              2

       Normalised Cartesian orbitals:

                        Set   Shell   Orbital            Exponent    Coefficient

                          1       1    2s                8.304404       0.526521
                                                         2.457945      -0.055011
                                                         0.759736      -0.404341
                                                         0.213639      -0.086026

                          1       2    3s                8.304404       0.000000
                                                         2.457945       0.000000
                                                         0.759736       0.000000
                                                         0.213639       0.223960

                          1       3    3px               8.304404      -2.000758
                                                         2.457945      -1.321077
                                                         0.759736      -0.480331
                                                         0.213639      -0.078647
                          1       3    3py               8.304404      -2.000758
                                                         2.457945      -1.321077
                                                         0.759736      -0.480331
                                                         0.213639      -0.078647
                          1       3    3pz               8.304404      -2.000758
                                                         2.457945      -1.321077
                                                         0.759736      -0.480331
                                                         0.213639      -0.078647

                          1       4    4px               8.304404       0.000000
                                                         2.457945       0.000000
                                                         0.759736       0.000000
                                                         0.213639       0.207033
                          1       4    4py               8.304404       0.000000
                                                         2.457945       0.000000
                                                         0.759736       0.000000
                                                         0.213639       0.207033
                          1       4    4pz               8.304404       0.000000
                                                         2.457945       0.000000
                                                         0.759736       0.000000
                                                         0.213639       0.207033

                          2       1    3dx2              0.800000       1.113825
                          2       1    3dxy              0.800000       1.929201
                          2       1    3dxz              0.800000       1.929201
                          2       1    3dy2              0.800000       1.113825
                          2       1    3dyz              0.800000       1.929201
                          2       1    3dz2              0.800000       1.113825

       Atomic covalent radius [Angstrom]:                                  0.730

       Atomic van der Waals radius [Angstrom]:                             1.520

     GTH Potential information for                                   GTH-PADE-q6

       Description:                       Goedecker-Teter-Hutter pseudopotential
                                           Goedecker et al., PRB 54, 1703 (1996)
                                          Hartwigsen et al., PRB 58, 3641 (1998)
                                                      Krack, TCA 114, 145 (2005)

       Gaussian exponent of the core charge distribution:               8.154466
       Electronic configuration (s p d ...):                               2   4

       Parameters of the local part of the GTH pseudopotential:

                          rloc        C1          C2          C3          C4
                        0.247621  -16.580318    2.395701

       Parameters of the non-local part of the GTH pseudopotential:

                   l      r(l)      h(i,j,l)

                   0    0.221786   18.266917
                   1    0.256829

  2. Atomic kind: H                                     Number of atoms:       2

     Orbital Basis Set                                             DZVP-GTH-PADE

       Number of orbital shell sets:                                           2
       Number of orbital shells:                                               3
       Number of primitive Cartesian functions:                                5
       Number of Cartesian basis functions:                                    5
       Number of spherical basis functions:                                    5
       Norm type:                                                              2

       Normalised Cartesian orbitals:

                        Set   Shell   Orbital            Exponent    Coefficient

                          1       1    1s                8.374435      -0.083834
                                                         1.805868      -0.155208
                                                         0.485253      -0.104875
                                                         0.165824      -0.128813

                          1       2    2s                8.374435       0.000000
                                                         1.805868       0.000000
                                                         0.485253       0.000000
                                                         0.165824       0.185202

                          2       1    2px               0.700000       0.912668
                          2       1    2py               0.700000       0.912668
                          2       1    2pz               0.700000       0.912668

       Atomic covalent radius [Angstrom]:                                  0.320

       Atomic van der Waals radius [Angstrom]:                             1.090

     GTH Potential information for                                   GTH-PADE-q1

       Description:                       Goedecker-Teter-Hutter pseudopotential
                                           Goedecker et al., PRB 54, 1703 (1996)
                                          Hartwigsen et al., PRB 58, 3641 (1998)
                                                      Krack, TCA 114, 145 (2005)

       Gaussian exponent of the core charge distribution:              12.500000
       Electronic configuration (s p d ...):                                   1

       Parameters of the local part of the GTH pseudopotential:

                          rloc        C1          C2          C3          C4
                        0.200000   -4.180237    0.725075


 MOLECULE KIND INFORMATION


 All atoms are their own molecule, skipping detailed information


 TOTAL NUMBERS AND MAXIMUM NUMBERS

  Total number of            - Atomic kinds:                                   2
                             - Atoms:                                          3
                             - Shell sets:                                     6
                             - Shells:                                        11
                             - Primitive Cartesian functions:                 15
                             - Cartesian basis functions:                     24
                             - Spherical basis functions:                     23

  Maximum angular momentum of- Orbital basis functions:                        2
                             - Local part of the GTH pseudopotential:          2
                             - Non-local part of the GTH pseudopotential:      0


 MODULE QUICKSTEP:  ATOMIC COORDINATES IN angstrom

 Atom  Kind  Element       X           Y           Z          Z(eff)       Mass
    1   1 O    8       4.776000    4.790000    4.000000       6.0000     15.9994
    2   2 H    1       5.776000    4.791000    4.000000       1.0000      1.0079
    3   2 H    1       4.442000    5.733000    4.000000       1.0000      1.0079




 SCF PARAMETERS         Density guess:                                    ATOMIC
                        --------------------------------------------------------

  **** **** ******  **  PROGRAM STARTED AT               2022-06-06 20:04:51.172
 ***** ** ***  *** **   PROGRAM STARTED ON                                pop-os
 **    ****   ******    PROGRAM STARTED BY                         woodrowwilson
 ***** **    ** ** **   PROGRAM PROCESS ID                                  2880
  **** **  *******  **  PROGRAM STARTED IN /home/woodrowwilson/Documents/Worksho
                                           ps/MSU-DFT-Catalysis-School/1_Gas-Pha
                                           se-Molecules/3a_H2O/2_Vibrational-Mod
                                           es

 CP2K| version string:                                          CP2K version 9.1
 CP2K| source code revision number:                                  git:d8d7100
 CP2K| cp2kflags: omp libint fftw3 libxc xsmm plumed2 spglib libvori libbqb     
 CP2K| is freely available from                            https://www.cp2k.org/
 CP2K| Program compiled at                       Wed May 25 08:10:51 PM CDT 2022
 CP2K| Program compiled on                                                pop-os
 CP2K| Program compiled for                                PopOS-x86-64-gfortran
 CP2K| Data directory path            /home/woodrowwilson/Programs/cp2k/9.1/data
 CP2K| Input file name                                           H2O-VIB-r-0.inp

 GLOBAL| Force Environment number                                              1
 GLOBAL| Basis set file name                                           BASIS_SET
 GLOBAL| Potential file name                                      GTH_POTENTIALS
 GLOBAL| MM Potential file name                                     MM_POTENTIAL
 GLOBAL| Coordinate file name                                      __STD_INPUT__
 GLOBAL| Method name                                                        CP2K
 GLOBAL| Project name                                                H2O-VIB-r-0
 GLOBAL| Run type                                           VIBRATIONAL_ANALYSIS
 GLOBAL| FFT library                                                       FFTW3
 GLOBAL| Diagonalization library                                       ScaLAPACK
 GLOBAL| Orthonormality check for eigenvectors                          DISABLED
 GLOBAL| Matrix multiplication library                                 ScaLAPACK
 GLOBAL| All-to-all communication in single precision                          F
 GLOBAL| FFTs using library dependent lengths                                  F
 GLOBAL| Grid backend                                                       AUTO
 GLOBAL| Global print level                                               MEDIUM
 GLOBAL| MPI I/O enabled                                                       T
 GLOBAL| Total number of message passing processes                             1
 GLOBAL| Number of threads for this process                                   12
 GLOBAL| This output is from process                                           0
 GLOBAL| Stack size for threads created by OpenMP (OMP_STACKSIZE)        default
 GLOBAL| CPU model name                 Intel(R) Core(TM) i7-9750H CPU @ 2.60GHz
 GLOBAL| CPUID                                                              1002

 MEMORY| system memory details [Kb]
 MEMORY|                        rank 0           min           max       average
 MEMORY| MemTotal             32580248      32580248      32580248      32580248
 MEMORY| MemFree              28751752      28751752      28751752      28751752
 MEMORY| Buffers                113724        113724        113724        113724
 MEMORY| Cached                2040172       2040172       2040172       2040172
 MEMORY| Slab                   196644        196644        196644        196644
 MEMORY| SReclaimable            91424         91424         91424         91424
 MEMORY| MemLikelyFree        30997072      30997072      30997072      30997072


 *** Fundamental physical constants (SI units) ***

 *** Literature: B. J. Mohr and B. N. Taylor,
 ***             CODATA recommended values of the fundamental physical
 ***             constants: 2006, Web Version 5.1
 ***             http://physics.nist.gov/constants

 Speed of light in vacuum [m/s]                             2.99792458000000E+08
 Magnetic constant or permeability of vacuum [N/A**2]       1.25663706143592E-06
 Electric constant or permittivity of vacuum [F/m]          8.85418781762039E-12
 Planck constant (h) [J*s]                                  6.62606896000000E-34
 Planck constant (h-bar) [J*s]                              1.05457162825177E-34
 Elementary charge [C]                                      1.60217648700000E-19
 Electron mass [kg]                                         9.10938215000000E-31
 Electron g factor [ ]                                     -2.00231930436220E+00
 Proton mass [kg]                                           1.67262163700000E-27
 Fine-structure constant                                    7.29735253760000E-03
 Rydberg constant [1/m]                                     1.09737315685270E+07
 Avogadro constant [1/mol]                                  6.02214179000000E+23
 Boltzmann constant [J/K]                                   1.38065040000000E-23
 Atomic mass unit [kg]                                      1.66053878200000E-27
 Bohr radius [m]                                            5.29177208590000E-11

 *** Conversion factors ***

 [u] -> [a.u.]                                              1.82288848426455E+03
 [Angstrom] -> [Bohr] = [a.u.]                              1.88972613288564E+00
 [a.u.] = [Bohr] -> [Angstrom]                              5.29177208590000E-01
 [a.u.] -> [s]                                              2.41888432650478E-17
 [a.u.] -> [fs]                                             2.41888432650478E-02
 [a.u.] -> [J]                                              4.35974393937059E-18
 [a.u.] -> [N]                                              8.23872205491840E-08
 [a.u.] -> [K]                                              3.15774647902944E+05
 [a.u.] -> [kJ/mol]                                         2.62549961709828E+03
 [a.u.] -> [kcal/mol]                                       6.27509468713739E+02
 [a.u.] -> [Pa]                                             2.94210107994716E+13
 [a.u.] -> [bar]                                            2.94210107994716E+08
 [a.u.] -> [atm]                                            2.90362800883016E+08
 [a.u.] -> [eV]                                             2.72113838565563E+01
 [a.u.] -> [Hz]                                             6.57968392072181E+15
 [a.u.] -> [1/cm] (wave numbers)                            2.19474631370540E+05
 [a.u./Bohr**2] -> [1/cm]                                   5.14048714338585E+03
 

 CELL_TOP| Volume [angstrom^3]:                                       512.000000
 CELL_TOP| Vector a [angstrom     8.000     0.000     0.000   |a| =     8.000000
 CELL_TOP| Vector b [angstrom     0.000     8.000     0.000   |b| =     8.000000
 CELL_TOP| Vector c [angstrom     0.000     0.000     8.000   |c| =     8.000000
 CELL_TOP| Angle (b,c), alpha [degree]:                                90.000000
 CELL_TOP| Angle (a,c), beta  [degree]:                                90.000000
 CELL_TOP| Angle (a,b), gamma [degree]:                                90.000000
 CELL_TOP| Numerically orthorhombic:                                         YES

 GENERATE|  Preliminary Number of Bonds generated:                             0
 GENERATE|  Achieved consistency in connectivity generation.

 CELL| Volume [angstrom^3]:                                           512.000000
 CELL| Vector a [angstrom]:       8.000     0.000     0.000   |a| =     8.000000
 CELL| Vector b [angstrom]:       0.000     8.000     0.000   |b| =     8.000000
 CELL| Vector c [angstrom]:       0.000     0.000     8.000   |c| =     8.000000
 CELL| Angle (b,c), alpha [degree]:                                    90.000000
 CELL| Angle (a,c), beta  [degree]:                                    90.000000
 CELL| Angle (a,b), gamma [degree]:                                    90.000000
 CELL| Numerically orthorhombic:                                             YES

 CELL_REF| Volume [angstrom^3]:                                       512.000000
 CELL_REF| Vector a [angstrom     8.000     0.000     0.000   |a| =     8.000000
 CELL_REF| Vector b [angstrom     0.000     8.000     0.000   |b| =     8.000000
 CELL_REF| Vector c [angstrom     0.000     0.000     8.000   |c| =     8.000000
 CELL_REF| Angle (b,c), alpha [degree]:                                90.000000
 CELL_REF| Angle (a,c), beta  [degree]:                                90.000000
 CELL_REF| Angle (a,b), gamma [degree]:                                90.000000
 CELL_REF| Numerically orthorhombic:                                         YES

 *******************************************************************************
 *******************************************************************************
 **                                                                           **
 **     #####                         ##              ##                      **
 **    ##   ##            ##          ##              ##                      **
 **   ##     ##                       ##            ######                    **
 **   ##     ##  ##   ##  ##   #####  ##  ##   ####   ##    #####    #####    **
 **   ##     ##  ##   ##  ##  ##      ## ##   ##      ##   ##   ##  ##   ##   **
 **   ##  ## ##  ##   ##  ##  ##      ####     ###    ##   ######   ######    **
 **    ##  ###   ##   ##  ##  ##      ## ##      ##   ##   ##       ##        **
 **     #######   #####   ##   #####  ##  ##  ####    ##    #####   ##        **
 **           ##                                                    ##        **
 **                                                                           **
 **                                                ... make the atoms dance   **
 **                                                                           **
 **            Copyright (C) by CP2K developers group (2000-2021)             **
 **                      J. Chem. Phys. 152, 194103 (2020)                    **
 **                                                                           **
 *******************************************************************************

 DFT| Spin unrestricted (spin-polarized) Kohn-Sham calculation               UKS
 DFT| Multiplicity                                                             1
 DFT| Number of spin states                                                    2
 DFT| Charge                                                                   0
 DFT| Self-interaction correction (SIC)                                       NO
 DFT| Cutoffs: density                                              1.000000E-10
 DFT|          gradient                                             1.000000E-10
 DFT|          tau                                                  1.000000E-10
 DFT|          cutoff_smoothing_range                               0.000000E+00
 DFT| XC density smoothing                                                  NONE
 DFT| XC derivatives                                                          PW
 FUNCTIONAL| ROUTINE=NEW
 FUNCTIONAL| PADE:
 FUNCTIONAL| S. Goedecker, M. Teter and J. Hutter, Phys. Rev. B 54, 1703 (1996) 

 QS| Method:                                                                 GPW
 QS| Density plane wave grid type                        NON-SPHERICAL FULLSPACE
 QS| Number of grid levels:                                                    4
 QS| Density cutoff [a.u.]:                                                170.0
 QS| Multi grid cutoff [a.u.]: 1) grid level                               170.0
 QS|                           2) grid level                                56.7
 QS|                           3) grid level                                18.9
 QS|                           4) grid level                                 6.3
 QS| Grid level progression factor:                                          3.0
 QS| Relative density cutoff [a.u.]:                                        20.0
 QS| Interaction thresholds: eps_pgf_orb:                                1.0E-05
 QS|                         eps_filter_matrix:                          0.0E+00
 QS|                         eps_core_charge:                            1.0E-12
 QS|                         eps_rho_gspace:                             1.0E-10
 QS|                         eps_rho_rspace:                             1.0E-10
 QS|                         eps_gvg_rspace:                             1.0E-05
 QS|                         eps_ppl:                                    1.0E-02
 QS|                         eps_ppnl:                                   1.0E-07


 ATOMIC KIND INFORMATION

  1. Atomic kind: O                                     Number of atoms:       1

     Orbital Basis Set                                             DZVP-GTH-PADE

       Number of orbital shell sets:                                           2
       Number of orbital shells:                                               5
       Number of primitive Cartesian functions:                                5
       Number of Cartesian basis functions:                                   14
       Number of spherical basis functions:                                   13
       Norm type:                                                              2

       Normalised Cartesian orbitals:

                        Set   Shell   Orbital            Exponent    Coefficient

                          1       1    2s                8.304404       0.526521
                                                         2.457945      -0.055011
                                                         0.759736      -0.404341
                                                         0.213639      -0.086026

                          1       2    3s                8.304404       0.000000
                                                         2.457945       0.000000
                                                         0.759736       0.000000
                                                         0.213639       0.223960

                          1       3    3px               8.304404      -2.000758
                                                         2.457945      -1.321077
                                                         0.759736      -0.480331
                                                         0.213639      -0.078647
                          1       3    3py               8.304404      -2.000758
                                                         2.457945      -1.321077
                                                         0.759736      -0.480331
                                                         0.213639      -0.078647
                          1       3    3pz               8.304404      -2.000758
                                                         2.457945      -1.321077
                                                         0.759736      -0.480331
                                                         0.213639      -0.078647

                          1       4    4px               8.304404       0.000000
                                                         2.457945       0.000000
                                                         0.759736       0.000000
                                                         0.213639       0.207033
                          1       4    4py               8.304404       0.000000
                                                         2.457945       0.000000
                                                         0.759736       0.000000
                                                         0.213639       0.207033
                          1       4    4pz               8.304404       0.000000
                                                         2.457945       0.000000
                                                         0.759736       0.000000
                                                         0.213639       0.207033

                          2       1    3dx2              0.800000       1.113825
                          2       1    3dxy              0.800000       1.929201
                          2       1    3dxz              0.800000       1.929201
                          2       1    3dy2              0.800000       1.113825
                          2       1    3dyz              0.800000       1.929201
                          2       1    3dz2              0.800000       1.113825

       Atomic covalent radius [Angstrom]:                                  0.730

       Atomic van der Waals radius [Angstrom]:                             1.520

     GTH Potential information for                                   GTH-PADE-q6

       Description:                       Goedecker-Teter-Hutter pseudopotential
                                           Goedecker et al., PRB 54, 1703 (1996)
                                          Hartwigsen et al., PRB 58, 3641 (1998)
                                                      Krack, TCA 114, 145 (2005)

       Gaussian exponent of the core charge distribution:               8.154466
       Electronic configuration (s p d ...):                               2   4

       Parameters of the local part of the GTH pseudopotential:

                          rloc        C1          C2          C3          C4
                        0.247621  -16.580318    2.395701

       Parameters of the non-local part of the GTH pseudopotential:

                   l      r(l)      h(i,j,l)

                   0    0.221786   18.266917
                   1    0.256829

  2. Atomic kind: H                                     Number of atoms:       2

     Orbital Basis Set                                             DZVP-GTH-PADE

       Number of orbital shell sets:                                           2
       Number of orbital shells:                                               3
       Number of primitive Cartesian functions:                                5
       Number of Cartesian basis functions:                                    5
       Number of spherical basis functions:                                    5
       Norm type:                                                              2

       Normalised Cartesian orbitals:

                        Set   Shell   Orbital            Exponent    Coefficient

                          1       1    1s                8.374435      -0.083834
                                                         1.805868      -0.155208
                                                         0.485253      -0.104875
                                                         0.165824      -0.128813

                          1       2    2s                8.374435       0.000000
                                                         1.805868       0.000000
                                                         0.485253       0.000000
                                                         0.165824       0.185202

                          2       1    2px               0.700000       0.912668
                          2       1    2py               0.700000       0.912668
                          2       1    2pz               0.700000       0.912668

       Atomic covalent radius [Angstrom]:                                  0.320

       Atomic van der Waals radius [Angstrom]:                             1.090

     GTH Potential information for                                   GTH-PADE-q1

       Description:                       Goedecker-Teter-Hutter pseudopotential
                                           Goedecker et al., PRB 54, 1703 (1996)
                                          Hartwigsen et al., PRB 58, 3641 (1998)
                                                      Krack, TCA 114, 145 (2005)

       Gaussian exponent of the core charge distribution:              12.500000
       Electronic configuration (s p d ...):                                   1

       Parameters of the local part of the GTH pseudopotential:

                          rloc        C1          C2          C3          C4
                        0.200000   -4.180237    0.725075


 MOLECULE KIND INFORMATION


 All atoms are their own molecule, skipping detailed information


 TOTAL NUMBERS AND MAXIMUM NUMBERS

  Total number of            - Atomic kinds:                                   2
                             - Atoms:                                          3
                             - Shell sets:                                     6
                             - Shells:                                        11
                             - Primitive Cartesian functions:                 15
                             - Cartesian basis functions:                     24
                             - Spherical basis functions:                     23

  Maximum angular momentum of- Orbital basis functions:                        2
                             - Local part of the GTH pseudopotential:          2
                             - Non-local part of the GTH pseudopotential:      0


 MODULE QUICKSTEP:  ATOMIC COORDINATES IN angstrom

 Atom  Kind  Element       X           Y           Z          Z(eff)       Mass
    1   1 O    8       4.776000    4.790000    4.000000       6.0000     15.9994
    2   2 H    1       5.776000    4.791000    4.000000       1.0000      1.0079
    3   2 H    1       4.442000    5.733000    4.000000       1.0000      1.0079




 SCF PARAMETERS         Density guess:                                    ATOMIC
                        --------------------------------------------------------
                        max_scf:                                              50
                        max_scf_history:                                       0
                        max_diis:                                              4
                        --------------------------------------------------------
                        eps_scf:                                        1.00E-08
                        eps_scf_history:                                0.00E+00
                        eps_diis:                                       1.00E-01
                        eps_eigval:                                     1.00E-05
                        --------------------------------------------------------
                        level_shift [a.u.]:                                 0.00
                        --------------------------------------------------------
                        Outer loop SCF in use 
                        No variables optimised in outer loop
                        eps_scf                                         1.00E-05
                        max_scf                                               50
                        No outer loop optimization
                        step_size                                       5.00E-01

 PW_GRID| Information for grid number                                          5
 PW_GRID| Cutoff [a.u.]                                                    170.0
 PW_GRID| spherical cutoff:                                                   NO
 PW_GRID|   Bounds   1            -45      44                Points:          90
 PW_GRID|   Bounds   2            -45      44                Points:          90
 PW_GRID|   Bounds   3            -45      44                Points:          90
 PW_GRID| Volume element (a.u.^3)  0.4740E-02     Volume (a.u.^3)      3455.1473
 PW_GRID| Grid span                                                    FULLSPACE

 PW_GRID| Information for grid number                                          6
 PW_GRID| Number of the reference grid                                         5
 PW_GRID| Cutoff [a.u.]                                                     56.7
 PW_GRID| spherical cutoff:                                                   NO
 PW_GRID|   Bounds   1            -27      26                Points:          54
 PW_GRID|   Bounds   2            -27      26                Points:          54
 PW_GRID|   Bounds   3            -27      26                Points:          54
 PW_GRID| Volume element (a.u.^3)  0.2194E-01     Volume (a.u.^3)      3455.1473
 PW_GRID| Grid span                                                    FULLSPACE

 PW_GRID| Information for grid number                                          7
 PW_GRID| Number of the reference grid                                         5
 PW_GRID| Cutoff [a.u.]                                                     18.9
 PW_GRID| spherical cutoff:                                                   NO
 PW_GRID|   Bounds   1            -15      14                Points:          30
 PW_GRID|   Bounds   2            -15      14                Points:          30
 PW_GRID|   Bounds   3            -15      14                Points:          30
 PW_GRID| Volume element (a.u.^3)  0.1280         Volume (a.u.^3)      3455.1473
 PW_GRID| Grid span                                                    FULLSPACE

 PW_GRID| Information for grid number                                          8
 PW_GRID| Number of the reference grid                                         5
 PW_GRID| Cutoff [a.u.]                                                      6.3
 PW_GRID| spherical cutoff:                                                   NO
 PW_GRID|   Bounds   1             -9       8                Points:          18
 PW_GRID|   Bounds   2             -9       8                Points:          18
 PW_GRID|   Bounds   3             -9       8                Points:          18
 PW_GRID| Volume element (a.u.^3)  0.5924         Volume (a.u.^3)      3455.1473
 PW_GRID| Grid span                                                    FULLSPACE

 POISSON| Solver                                                        PERIODIC
 POISSON| Periodicity                                                        XYZ

 RS_GRID| Information for grid number                                          5
 RS_GRID|   Bounds   1            -45      44                Points:          90
 RS_GRID|   Bounds   2            -45      44                Points:          90
 RS_GRID|   Bounds   3            -45      44                Points:          90

 RS_GRID| Information for grid number                                          6
 RS_GRID|   Bounds   1            -27      26                Points:          54
 RS_GRID|   Bounds   2            -27      26                Points:          54
 RS_GRID|   Bounds   3            -27      26                Points:          54

 RS_GRID| Information for grid number                                          7
 RS_GRID|   Bounds   1            -15      14                Points:          30
 RS_GRID|   Bounds   2            -15      14                Points:          30
 RS_GRID|   Bounds   3            -15      14                Points:          30

 RS_GRID| Information for grid number                                          8
 RS_GRID|   Bounds   1             -9       8                Points:          18
 RS_GRID|   Bounds   2             -9       8                Points:          18
 RS_GRID|   Bounds   3             -9       8                Points:          18

 Spin 1

 Number of electrons:                                                          4
 Number of occupied orbitals:                                                  4
 Number of molecular orbitals:                                                 4

 Spin 2

 Number of electrons:                                                          4
 Number of occupied orbitals:                                                  4
 Number of molecular orbitals:                                                 4

 Number of orbital functions:                                                 23
 Number of independent orbital functions:                                     23

 Extrapolation method: initial_guess

 Atomic guess: The first density matrix is obtained in terms of atomic orbitals
               and electronic configurations assigned to each atomic kind

 Guess for atomic kind: O

 Electronic structure
    Total number of core electrons                                          2.00
    Total number of valence electrons                                       6.00
    Total number of electrons                                               8.00
    Multiplicity                                                   not specified
    S   [  2.00] 2.00
    P      4.00


 *******************************************************************************
                  Iteration          Convergence                     Energy [au]
 *******************************************************************************
                          1        0.646148                     -15.636779198680
                          2        0.563412                     -15.645844224453
                          3        0.777098E-02                 -15.702646985730
                          4        0.181933E-02                 -15.702656239616
                          5        0.462182E-03                 -15.702656742008
                          6        0.259018E-03                 -15.702656765778
                          7        0.325657E-06                 -15.702656776662

 Energy components [Hartree]           Total Energy ::          -15.702656776662
                                        Band Energy ::           -2.982158420927
                                     Kinetic Energy ::           11.942299328633
                                   Potential Energy ::          -27.644956105295
                                      Virial (-V/T) ::            2.314877172691
                                        Core Energy ::          -26.240315954047
                                          XC Energy ::           -3.168822192398
                                     Coulomb Energy ::           13.706481369783
                       Total Pseudopotential Energy ::          -38.217118818507
                       Local Pseudopotential Energy ::          -39.522372330173
                    Nonlocal Pseudopotential Energy ::            1.305253511666
                                        Confinement ::            0.345035358268

 Orbital energies  State     L     Occupation   Energy[a.u.]          Energy[eV]

                       1     0          2.000      -0.854038          -23.239545

                       1     1          4.000      -0.318521           -8.667392


 Total Electron Density at R=0:                                         0.000667

 Guess for atomic kind: H

 Electronic structure
    Total number of core electrons                                          0.00
    Total number of valence electrons                                       1.00
    Total number of electrons                                               1.00
    Multiplicity                                                   not specified
    S      1.00


 *******************************************************************************
                  Iteration          Convergence                     Energy [au]
 *******************************************************************************
                          1        0.316011E-02                  -0.422390558413
                          2        0.333152E-03                  -0.422399635530
                          3        0.114302E-06                  -0.422399737491

 Energy components [Hartree]           Total Energy ::           -0.422399737491
                                        Band Energy ::           -0.193019372217
                                     Kinetic Energy ::            0.475009752129
                                   Potential Energy ::           -0.897409489620
                                      Virial (-V/T) ::            1.889244348347
                                        Core Energy ::           -0.478923189740
                                          XC Energy ::           -0.248206713182
                                     Coulomb Energy ::            0.304730165431
                       Total Pseudopotential Energy ::           -0.971460622099
                       Local Pseudopotential Energy ::           -0.971460622099
                    Nonlocal Pseudopotential Energy ::            0.000000000000
                                        Confinement ::            0.175276802303

 Orbital energies  State     L     Occupation   Energy[a.u.]          Energy[eV]

                       1     0          1.000      -0.193019           -5.252324


 Total Electron Density at R=0:                                         0.237353

 Spin 1
 Re-scaling the density matrix to get the right number of electrons for spin 1
                  # Electrons              Trace(P)               Scaling factor
                            4                 4.000                        1.000

 Spin 2
 Re-scaling the density matrix to get the right number of electrons for spin 2
                  # Electrons              Trace(P)               Scaling factor
                            4                 4.000                        1.000


 SCF WAVEFUNCTION OPTIMIZATION

  ----------------------------------- OT ---------------------------------------
  Minimizer      : DIIS                : direct inversion
                                         in the iterative subspace
                                         using   7 DIIS vectors
                                         safer DIIS on
  Preconditioner : FULL_SINGLE_INVERSE : inversion of 
                                         H + eS - 2*(Sc)(c^T*H*c+const)(Sc)^T
  Precond_solver : DEFAULT
  stepsize       :    0.08000000                  energy_gap     :    0.08000000
  eps_taylor     :   0.10000E-15                  max_taylor     :             4
  ----------------------------------- OT ---------------------------------------

  Step     Update method      Time    Convergence         Total energy    Change
  ------------------------------------------------------------------------------
     1 OT DIIS     0.80E-01    0.7     0.15079719       -16.0060735554 -1.60E+01
     2 OT SD       0.80E-01    0.3     0.19461015       -16.3975685818 -3.91E-01
     3 OT SD       0.80E-01    0.3     0.12681650       -16.8846239116 -4.87E-01
     4 OT DIIS     0.80E-01    0.3     0.05958522       -17.0498738887 -1.65E-01
     5 OT DIIS     0.80E-01    0.3     0.11836087       -16.9899826346  5.99E-02
     6 OT DIIS     0.80E-01    0.3     0.07814128       -17.0685335929 -7.86E-02
     7 OT SD       0.80E-01    0.3     0.05171258       -17.1339500220 -6.54E-02
     8 OT DIIS     0.80E-01    0.2     0.01433337       -17.1557451300 -2.18E-02
     9 OT DIIS     0.80E-01    0.2     0.02966655       -17.1538472189  1.90E-03
    10 OT DIIS     0.80E-01    0.2     0.00592903       -17.1614190913 -7.57E-03
    11 OT DIIS     0.80E-01    0.2     0.00695121       -17.1621836485 -7.65E-04
    12 OT DIIS     0.80E-01    0.2     0.00395554       -17.1624707754 -2.87E-04
    13 OT DIIS     0.80E-01    0.2     0.00124039       -17.1628171719 -3.46E-04
    14 OT DIIS     0.80E-01    0.3     0.00109596       -17.1628463985 -2.92E-05
    15 OT DIIS     0.80E-01    0.3     0.00051560       -17.1629200002 -7.36E-05
    16 OT DIIS     0.80E-01    0.3     0.00041228       -17.1629290334 -9.03E-06
    17 OT DIIS     0.80E-01    0.3     0.00019743       -17.1629402427 -1.12E-05
    18 OT DIIS     0.80E-01    0.3     0.00011742       -17.1629422536 -2.01E-06
    19 OT DIIS     0.80E-01    0.3     0.00009521       -17.1629426451 -3.91E-07
    20 OT DIIS     0.80E-01    0.3     0.00003933       -17.1629432419 -5.97E-07
    21 OT DIIS     0.80E-01    0.2     0.00002188       -17.1629433184 -7.65E-08
    22 OT DIIS     0.80E-01    0.2     0.00001684       -17.1629433319 -1.34E-08
    23 OT DIIS     0.80E-01    0.2     0.00000677       -17.1629433486 -1.68E-08
    24 OT DIIS     0.80E-01    0.2     0.00000561       -17.1629433498 -1.16E-09
    25 OT DIIS     0.80E-01    0.2     0.00000332       -17.1629433511 -1.31E-09
    26 OT DIIS     0.80E-01    0.2     0.00000224       -17.1629433516 -4.50E-10
    27 OT DIIS     0.80E-01    0.3     0.00000140       -17.1629433518 -2.90E-10
    28 OT DIIS     0.80E-01    0.3     0.00000098       -17.1629433519 -8.54E-11
    29 OT DIIS     0.80E-01    0.3     0.00000071       -17.1629433520 -3.70E-11
    30 OT DIIS     0.80E-01    0.3     0.00000040       -17.1629433520 -3.03E-11
    31 OT DIIS     0.80E-01    0.3     0.00000028       -17.1629433520 -6.54E-12
    32 OT DIIS     0.80E-01    0.3     0.00000018       -17.1629433520 -3.56E-12
    33 OT DIIS     0.80E-01    0.3     0.00000015       -17.1629433520 -9.45E-13
    34 OT DIIS     0.80E-01    0.2     0.00000010       -17.1629433520 -9.31E-13
    35 OT DIIS     0.80E-01    0.2     0.00000008       -17.1629433520 -4.05E-13
    36 OT DIIS     0.80E-01    0.2     0.00000006       -17.1629433520 -2.06E-13
    37 OT DIIS     0.80E-01    0.2     0.00000004       -17.1629433520 -1.99E-13
    38 OT DIIS     0.80E-01    0.2     0.00000003       -17.1629433520 -7.11E-14
    39 OT DIIS     0.80E-01    0.2     0.00000002       -17.1629433520 -2.84E-14
    40 OT DIIS     0.80E-01    0.3     0.00000001       -17.1629433520 -3.55E-15
    41 OT DIIS     0.80E-01    0.3     0.00000001       -17.1629433520 -7.11E-15
    42 OT DIIS     0.80E-01    0.5     7.1279E-09       -17.1629433520  1.07E-14

  *** SCF run converged in    42 steps ***


  Electronic density on regular grids:         -7.9999999981        0.0000000019
  Core density on regular grids:                7.9999999997       -0.0000000003
  Total charge density on r-space grids:        0.0000000016
  Total charge density g-space grids:           0.0000000016

  Overlap energy of the core charge distribution:               0.00000001972615
  Self energy of the core charge distribution:                -43.83289054591484
  Core Hamiltonian energy:                                     12.75529143768088
  Hartree energy:                                              18.02271079402254
  Exchange-correlation energy:                                 -4.10805505752380

  Total energy:                                               -17.16294335200907

  outer SCF iter =    1 RMS gradient =   0.71E-08 energy =        -17.1629433520
  outer SCF loop converged in   1 iterations or   42 steps


  Integrated absolute spin density  :                               0.0000000000
  Ideal and single determinant S**2 :                    0.000000       0.000000

 ENERGY| Total FORCE_EVAL ( QS ) energy [a.u.]:              -17.162943352009094

 Spin 1

 Number of electrons:                                                          4
 Number of occupied orbitals:                                                  4
 Number of molecular orbitals:                                                 4

 Spin 2

 Number of electrons:                                                          4
 Number of occupied orbitals:                                                  4
 Number of molecular orbitals:                                                 4

 Number of orbital functions:                                                 23
 Number of independent orbital functions:                                     23

 Parameters for the always stable predictor-corrector (ASPC) method:

  ASPC order: 0

  B(1) =   1.000000

 Parameters for the always stable predictor-corrector (ASPC) method:

  ASPC order: 0

  B(1) =   1.000000

 Extrapolation method: ASPC


 SCF WAVEFUNCTION OPTIMIZATION

  ----------------------------------- OT ---------------------------------------
  Minimizer      : DIIS                : direct inversion
                                         in the iterative subspace
                                         using   7 DIIS vectors
                                         safer DIIS on
  Preconditioner : FULL_SINGLE_INVERSE : inversion of 
                                         H + eS - 2*(Sc)(c^T*H*c+const)(Sc)^T
  Precond_solver : DEFAULT
  stepsize       :    0.08000000                  energy_gap     :    0.08000000
  eps_taylor     :   0.10000E-15                  max_taylor     :             4
  ----------------------------------- OT ---------------------------------------

  Step     Update method      Time    Convergence         Total energy    Change
  ------------------------------------------------------------------------------
     1 OT DIIS     0.80E-01    0.9     0.00073869       -17.1629626077 -1.72E+01
     2 OT DIIS     0.80E-01    0.2     0.00058570       -17.1629698029 -7.20E-06
     3 OT DIIS     0.80E-01    0.2     0.00011133       -17.1629821457 -1.23E-05
     4 OT DIIS     0.80E-01    0.2     0.00005151       -17.1629825068 -3.61E-07
     5 OT DIIS     0.80E-01    0.2     0.00001351       -17.1629826029 -9.61E-08
     6 OT DIIS     0.80E-01    0.2     0.00000540       -17.1629826089 -5.92E-09
     7 OT DIIS     0.80E-01    0.2     0.00000442       -17.1629826094 -5.36E-10
     8 OT DIIS     0.80E-01    0.2     0.00000075       -17.1629826097 -3.49E-10
     9 OT DIIS     0.80E-01    0.2     0.00000016       -17.1629826098 -1.94E-11
    10 OT DIIS     0.80E-01    0.2     0.00000013       -17.1629826098 -4.12E-13
    11 OT DIIS     0.80E-01    0.2     0.00000002       -17.1629826098 -6.15E-13
    12 OT DIIS     0.80E-01    0.2     0.00000001       -17.1629826098 -1.78E-14
    13 OT DIIS     0.80E-01    0.2     6.5043E-09       -17.1629826098  3.55E-15

  *** SCF run converged in    13 steps ***


  Electronic density on regular grids:         -7.9999999982        0.0000000018
  Core density on regular grids:                7.9999999997       -0.0000000003
  Total charge density on r-space grids:        0.0000000015
  Total charge density g-space grids:           0.0000000015

  Overlap energy of the core charge distribution:               0.00000002015240
  Self energy of the core charge distribution:                -43.83289054591484
  Core Hamiltonian energy:                                     12.75748180381481
  Hartree energy:                                              18.02110191690630
  Exchange-correlation energy:                                 -4.10867580472631

  Total energy:                                               -17.16298260976765

  outer SCF iter =    1 RMS gradient =   0.65E-08 energy =        -17.1629826098
  outer SCF loop converged in   1 iterations or   13 steps


  Integrated absolute spin density  :                               0.0000000000
  Ideal and single determinant S**2 :                    0.000000      -0.000000

 ENERGY| Total FORCE_EVAL ( QS ) energy [a.u.]:              -17.162982609767653

 Spin 1

 Number of electrons:                                                          4
 Number of occupied orbitals:                                                  4
 Number of molecular orbitals:                                                 4

 Spin 2

 Number of electrons:                                                          4
 Number of occupied orbitals:                                                  4
 Number of molecular orbitals:                                                 4

 Number of orbital functions:                                                 23
 Number of independent orbital functions:                                     23

 Parameters for the always stable predictor-corrector (ASPC) method:

  ASPC order: 0

  B(1) =   2.000000
  B(2) =  -1.000000

 Parameters for the always stable predictor-corrector (ASPC) method:

  ASPC order: 0

  B(1) =   2.000000
  B(2) =  -1.000000

 Extrapolation method: ASPC


 SCF WAVEFUNCTION OPTIMIZATION

  ----------------------------------- OT ---------------------------------------
  Minimizer      : DIIS                : direct inversion
                                         in the iterative subspace
                                         using   7 DIIS vectors
                                         safer DIIS on
  Preconditioner : FULL_SINGLE_INVERSE : inversion of 
                                         H + eS - 2*(Sc)(c^T*H*c+const)(Sc)^T
  Precond_solver : DEFAULT
  stepsize       :    0.08000000                  energy_gap     :    0.08000000
  eps_taylor     :   0.10000E-15                  max_taylor     :             4
  ----------------------------------- OT ---------------------------------------

  Step     Update method      Time    Convergence         Total energy    Change
  ------------------------------------------------------------------------------
     1 OT DIIS     0.80E-01    0.7     0.00120584       -17.1628166380 -1.72E+01
     2 OT DIIS     0.80E-01    0.2     0.00095317       -17.1628357576 -1.91E-05
     3 OT DIIS     0.80E-01    0.2     0.00027596       -17.1628681389 -3.24E-05
     4 OT DIIS     0.80E-01    0.2     0.00011744       -17.1628704675 -2.33E-06
     5 OT DIIS     0.80E-01    0.2     0.00003076       -17.1628710111 -5.44E-07
     6 OT DIIS     0.80E-01    0.2     0.00001488       -17.1628710431 -3.20E-08
     7 OT DIIS     0.80E-01    0.2     0.00000796       -17.1628710473 -4.27E-09
     8 OT DIIS     0.80E-01    0.2     0.00000284       -17.1628710501 -2.75E-09
     9 OT DIIS     0.80E-01    0.2     0.00000081       -17.1628710504 -3.20E-10
    10 OT DIIS     0.80E-01    0.2     0.00000060       -17.1628710504 -1.20E-11
    11 OT DIIS     0.80E-01    0.2     0.00000020       -17.1628710504 -1.42E-11
    12 OT DIIS     0.80E-01    0.2     0.00000014       -17.1628710504 -9.52E-13
    13 OT DIIS     0.80E-01    0.2     0.00000009       -17.1628710504 -4.62E-13
    14 OT DIIS     0.80E-01    0.2     0.00000007       -17.1628710504 -1.67E-13
    15 OT DIIS     0.80E-01    0.3     4.6829E-09       -17.1628710504 -2.24E-13

  *** SCF run converged in    15 steps ***


  Electronic density on regular grids:         -7.9999999985        0.0000000015
  Core density on regular grids:                7.9999999997       -0.0000000003
  Total charge density on r-space grids:        0.0000000013
  Total charge density g-space grids:           0.0000000013

  Overlap energy of the core charge distribution:               0.00000001829806
  Self energy of the core charge distribution:                -43.83289054591484
  Core Hamiltonian energy:                                     12.74981067202462
  Hartree energy:                                              18.02670974777318
  Exchange-correlation energy:                                 -4.10650094261313

  Total energy:                                               -17.16287105043212

  outer SCF iter =    1 RMS gradient =   0.47E-08 energy =        -17.1628710504
  outer SCF loop converged in   1 iterations or   15 steps


  Integrated absolute spin density  :                               0.0000000000
  Ideal and single determinant S**2 :                    0.000000      -0.000000

 ENERGY| Total FORCE_EVAL ( QS ) energy [a.u.]:              -17.162871050432113

 Spin 1

 Number of electrons:                                                          4
 Number of occupied orbitals:                                                  4
 Number of molecular orbitals:                                                 4

 Spin 2

 Number of electrons:                                                          4
 Number of occupied orbitals:                                                  4
 Number of molecular orbitals:                                                 4

 Number of orbital functions:                                                 23
 Number of independent orbital functions:                                     23

 Parameters for the always stable predictor-corrector (ASPC) method:

  ASPC order: 1

  B(1) =   2.500000
  B(2) =  -2.000000
  B(3) =   0.500000

 Parameters for the always stable predictor-corrector (ASPC) method:

  ASPC order: 1

  B(1) =   2.500000
  B(2) =  -2.000000
  B(3) =   0.500000

 Extrapolation method: ASPC


 SCF WAVEFUNCTION OPTIMIZATION

  ----------------------------------- OT ---------------------------------------
  Minimizer      : DIIS                : direct inversion
                                         in the iterative subspace
                                         using   7 DIIS vectors
                                         safer DIIS on
  Preconditioner : FULL_SINGLE_INVERSE : inversion of 
                                         H + eS - 2*(Sc)(c^T*H*c+const)(Sc)^T
  Precond_solver : DEFAULT
  stepsize       :    0.08000000                  energy_gap     :    0.08000000
  eps_taylor     :   0.10000E-15                  max_taylor     :             4
  ----------------------------------- OT ---------------------------------------

  Step     Update method      Time    Convergence         Total energy    Change
  ------------------------------------------------------------------------------
     1 OT DIIS     0.80E-01    0.8     0.00145249       -17.1625243810 -1.72E+01
     2 OT DIIS     0.80E-01    0.2     0.00118146       -17.1625525121 -2.81E-05
     3 OT DIIS     0.80E-01    0.2     0.00029467       -17.1626083776 -5.59E-05
     4 OT DIIS     0.80E-01    0.2     0.00013929       -17.1626113059 -2.93E-06
     5 OT DIIS     0.80E-01    0.2     0.00004567       -17.1626120708 -7.65E-07
     6 OT DIIS     0.80E-01    0.2     0.00002324       -17.1626121480 -7.73E-08
     7 OT DIIS     0.80E-01    0.2     0.00002209       -17.1626121567 -8.70E-09
     8 OT DIIS     0.80E-01    0.2     0.00000417       -17.1626121665 -9.75E-09
     9 OT DIIS     0.80E-01    0.2     0.00000110       -17.1626121673 -8.06E-10
    10 OT DIIS     0.80E-01    0.2     0.00000082       -17.1626121673 -1.95E-11
    11 OT DIIS     0.80E-01    0.2     0.00000023       -17.1626121673 -2.57E-11
    12 OT DIIS     0.80E-01    0.2     0.00000017       -17.1626121673 -9.59E-13
    13 OT DIIS     0.80E-01    0.2     0.00000006       -17.1626121673 -1.07E-12
    14 OT DIIS     0.80E-01    0.2     0.00000004       -17.1626121673 -7.11E-14
    15 OT DIIS     0.80E-01    0.2     0.00000002       -17.1626121673 -3.20E-14
    16 OT DIIS     0.80E-01    0.3     5.4704E-09       -17.1626121673 -1.42E-14

  *** SCF run converged in    16 steps ***


  Electronic density on regular grids:         -7.9999999984        0.0000000016
  Core density on regular grids:                7.9999999997       -0.0000000003
  Total charge density on r-space grids:        0.0000000014
  Total charge density g-space grids:           0.0000000014

  Overlap energy of the core charge distribution:               0.00000001665626
  Self energy of the core charge distribution:                -43.83289054591484
  Core Hamiltonian energy:                                     12.74216226240359
  Hartree energy:                                              18.03238854907307
  Exchange-correlation energy:                                 -4.10427244952481

  Total energy:                                               -17.16261216730672

  outer SCF iter =    1 RMS gradient =   0.55E-08 energy =        -17.1626121673
  outer SCF loop converged in   1 iterations or   16 steps


  Integrated absolute spin density  :                               0.0000000000
  Ideal and single determinant S**2 :                    0.000000      -0.000000

 ENERGY| Total FORCE_EVAL ( QS ) energy [a.u.]:              -17.162612167306726

 Spin 1

 Number of electrons:                                                          4
 Number of occupied orbitals:                                                  4
 Number of molecular orbitals:                                                 4

 Spin 2

 Number of electrons:                                                          4
 Number of occupied orbitals:                                                  4
 Number of molecular orbitals:                                                 4

 Number of orbital functions:                                                 23
 Number of independent orbital functions:                                     23

 Parameters for the always stable predictor-corrector (ASPC) method:

  ASPC order: 2

  B(1) =   2.800000
  B(2) =  -2.800000
  B(3) =   1.200000
  B(4) =  -0.200000

 Parameters for the always stable predictor-corrector (ASPC) method:

  ASPC order: 2

  B(1) =   2.800000
  B(2) =  -2.800000
  B(3) =   1.200000
  B(4) =  -0.200000

 Extrapolation method: ASPC


 SCF WAVEFUNCTION OPTIMIZATION

  ----------------------------------- OT ---------------------------------------
  Minimizer      : DIIS                : direct inversion
                                         in the iterative subspace
                                         using   7 DIIS vectors
                                         safer DIIS on
  Preconditioner : FULL_SINGLE_INVERSE : inversion of 
                                         H + eS - 2*(Sc)(c^T*H*c+const)(Sc)^T
  Precond_solver : DEFAULT
  stepsize       :    0.08000000                  energy_gap     :    0.08000000
  eps_taylor     :   0.10000E-15                  max_taylor     :             4
  ----------------------------------- OT ---------------------------------------

  Step     Update method      Time    Convergence         Total energy    Change
  ------------------------------------------------------------------------------
     1 OT DIIS     0.80E-01    0.7     0.00175003       -17.1628314653 -1.72E+01
     2 OT DIIS     0.80E-01    0.2     0.00139356       -17.1628718362 -4.04E-05
     3 OT DIIS     0.80E-01    0.2     0.00047975       -17.1629425677 -7.07E-05
     4 OT DIIS     0.80E-01    0.2     0.00020318       -17.1629504527 -7.89E-06
     5 OT DIIS     0.80E-01    0.2     0.00004985       -17.1629522015 -1.75E-06
     6 OT DIIS     0.80E-01    0.2     0.00002840       -17.1629522875 -8.60E-08
     7 OT DIIS     0.80E-01    0.2     0.00001856       -17.1629523044 -1.69E-08
     8 OT DIIS     0.80E-01    0.2     0.00000617       -17.1629523151 -1.07E-08
     9 OT DIIS     0.80E-01    0.2     0.00000136       -17.1629523166 -1.42E-09
    10 OT DIIS     0.80E-01    0.2     0.00000088       -17.1629523166 -2.62E-11
    11 OT DIIS     0.80E-01    0.3     0.00000050       -17.1629523166 -2.18E-11
    12 OT DIIS     0.80E-01    0.2     0.00000034       -17.1629523166 -5.26E-12
    13 OT DIIS     0.80E-01    0.2     0.00000023       -17.1629523166 -3.11E-12
    14 OT DIIS     0.80E-01    0.2     0.00000013       -17.1629523166 -1.72E-12
    15 OT DIIS     0.80E-01    0.2     0.00000005       -17.1629523166 -4.30E-13
    16 OT DIIS     0.80E-01    0.2     0.00000004       -17.1629523166 -6.39E-14
    17 OT DIIS     0.80E-01    0.2     9.4158E-09       -17.1629523166 -4.97E-14

  *** SCF run converged in    17 steps ***


  Electronic density on regular grids:         -7.9999999984        0.0000000016
  Core density on regular grids:                7.9999999997       -0.0000000003
  Total charge density on r-space grids:        0.0000000014
  Total charge density g-space grids:           0.0000000014

  Overlap energy of the core charge distribution:               0.00000001830097
  Self energy of the core charge distribution:                -43.83289054591484
  Core Hamiltonian energy:                                     12.74963970019990
  Hartree energy:                                              18.02679289276229
  Exchange-correlation energy:                                 -4.10649438197156

  Total energy:                                               -17.16295231662323

  outer SCF iter =    1 RMS gradient =   0.94E-08 energy =        -17.1629523166
  outer SCF loop converged in   1 iterations or   17 steps


  Integrated absolute spin density  :                               0.0000000000
  Ideal and single determinant S**2 :                    0.000000      -0.000000

 ENERGY| Total FORCE_EVAL ( QS ) energy [a.u.]:              -17.162952316623233

 Spin 1

 Number of electrons:                                                          4
 Number of occupied orbitals:                                                  4
 Number of molecular orbitals:                                                 4

 Spin 2

 Number of electrons:                                                          4
 Number of occupied orbitals:                                                  4
 Number of molecular orbitals:                                                 4

 Number of orbital functions:                                                 23
 Number of independent orbital functions:                                     23

 Parameters for the always stable predictor-corrector (ASPC) method:

  ASPC order: 3

  B(1) =   3.000000
  B(2) =  -3.428571
  B(3) =   1.928571
  B(4) =  -0.571429
  B(5) =   0.071429

 Parameters for the always stable predictor-corrector (ASPC) method:

  ASPC order: 3

  B(1) =   3.000000
  B(2) =  -3.428571
  B(3) =   1.928571
  B(4) =  -0.571429
  B(5) =   0.071429

 Extrapolation method: ASPC


 SCF WAVEFUNCTION OPTIMIZATION

  ----------------------------------- OT ---------------------------------------
  Minimizer      : DIIS                : direct inversion
                                         in the iterative subspace
                                         using   7 DIIS vectors
                                         safer DIIS on
  Preconditioner : FULL_SINGLE_INVERSE : inversion of 
[...]
 Number of occupied orbitals:                                                  4
 Number of molecular orbitals:                                                 4

 Spin 2

 Number of electrons:                                                          4
 Number of occupied orbitals:                                                  4
 Number of molecular orbitals:                                                 4

 Number of orbital functions:                                                 23
 Number of independent orbital functions:                                     23

 Parameters for the always stable predictor-corrector (ASPC) method:

  ASPC order: 3

  B(1) =   3.000000
  B(2) =  -3.428571
  B(3) =   1.928571
  B(4) =  -0.571429
  B(5) =   0.071429

 Parameters for the always stable predictor-corrector (ASPC) method:

  ASPC order: 3

  B(1) =   3.000000
  B(2) =  -3.428571
  B(3) =   1.928571
  B(4) =  -0.571429
  B(5) =   0.071429

 Extrapolation method: ASPC


 SCF WAVEFUNCTION OPTIMIZATION

  ----------------------------------- OT ---------------------------------------
  Minimizer      : DIIS                : direct inversion
                                         in the iterative subspace
                                         using   7 DIIS vectors
                                         safer DIIS on
  Preconditioner : FULL_SINGLE_INVERSE : inversion of 
                                         H + eS - 2*(Sc)(c^T*H*c+const)(Sc)^T
  Precond_solver : DEFAULT
  stepsize       :    0.08000000                  energy_gap     :    0.08000000
  eps_taylor     :   0.10000E-15                  max_taylor     :             4
  ----------------------------------- OT ---------------------------------------

  Step     Update method      Time    Convergence         Total energy    Change
  ------------------------------------------------------------------------------
     1 OT DIIS     0.80E-01    0.6     0.00194318       -17.1627506929 -1.72E+01
     2 OT DIIS     0.80E-01    0.2     0.00143993       -17.1627986954 -4.80E-05
     3 OT DIIS     0.80E-01    0.2     0.00064639       -17.1628579704 -5.93E-05
     4 OT DIIS     0.80E-01    0.2     0.00019086       -17.1628727554 -1.48E-05
     5 OT DIIS     0.80E-01    0.2     0.00004522       -17.1628742920 -1.54E-06
     6 OT DIIS     0.80E-01    0.2     0.00002481       -17.1628743495 -5.76E-08
     7 OT DIIS     0.80E-01    0.2     0.00001162       -17.1628743656 -1.61E-08
     8 OT DIIS     0.80E-01    0.2     0.00000341       -17.1628743714 -5.74E-09
     9 OT DIIS     0.80E-01    0.2     0.00000125       -17.1628743718 -4.63E-10
    10 OT DIIS     0.80E-01    0.2     0.00000078       -17.1628743718 -2.75E-11
    11 OT DIIS     0.80E-01    0.3     0.00000047       -17.1628743719 -1.79E-11
    12 OT DIIS     0.80E-01    0.2     0.00000016       -17.1628743719 -8.72E-12
    13 OT DIIS     0.80E-01    0.2     0.00000013       -17.1628743719 -4.33E-13
    14 OT DIIS     0.80E-01    0.2     0.00000004       -17.1628743719 -6.36E-13
    15 OT DIIS     0.80E-01    0.2     7.0691E-09       -17.1628743719 -7.46E-14

  *** SCF run converged in    15 steps ***


  Electronic density on regular grids:         -7.9999999984        0.0000000016
  Core density on regular grids:                7.9999999997       -0.0000000003
  Total charge density on r-space grids:        0.0000000014
  Total charge density g-space grids:           0.0000000014

  Overlap energy of the core charge distribution:               0.00000001830286
  Self energy of the core charge distribution:                -43.83289054591484
  Core Hamiltonian energy:                                     12.74984119188894
  Hartree energy:                                              18.02668654951065
  Exchange-correlation energy:                                 -4.10651158566072

  Total energy:                                               -17.16287437187311

  outer SCF iter =    1 RMS gradient =   0.71E-08 energy =        -17.1628743719
  outer SCF loop converged in   1 iterations or   15 steps


  Integrated absolute spin density  :                               0.0000000000
  Ideal and single determinant S**2 :                    0.000000       0.000000

 ENERGY| Total FORCE_EVAL ( QS ) energy [a.u.]:              -17.162874371873105

 Spin 1

 Number of electrons:                                                          4
 Number of occupied orbitals:                                                  4
 Number of molecular orbitals:                                                 4

 Spin 2

 Number of electrons:                                                          4
 Number of occupied orbitals:                                                  4
 Number of molecular orbitals:                                                 4

 Number of orbital functions:                                                 23
 Number of independent orbital functions:                                     23

 Parameters for the always stable predictor-corrector (ASPC) method:

  ASPC order: 3

  B(1) =   3.000000
  B(2) =  -3.428571
  B(3) =   1.928571
  B(4) =  -0.571429
  B(5) =   0.071429

 Parameters for the always stable predictor-corrector (ASPC) method:

  ASPC order: 3

  B(1) =   3.000000
  B(2) =  -3.428571
  B(3) =   1.928571
  B(4) =  -0.571429
  B(5) =   0.071429

 Extrapolation method: ASPC


 SCF WAVEFUNCTION OPTIMIZATION

  ----------------------------------- OT ---------------------------------------
  Minimizer      : DIIS                : direct inversion
                                         in the iterative subspace
                                         using   7 DIIS vectors
                                         safer DIIS on
  Preconditioner : FULL_SINGLE_INVERSE : inversion of 
                                         H + eS - 2*(Sc)(c^T*H*c+const)(Sc)^T
  Precond_solver : DEFAULT
  stepsize       :    0.08000000                  energy_gap     :    0.08000000
  eps_taylor     :   0.10000E-15                  max_taylor     :             4
  ----------------------------------- OT ---------------------------------------

  Step     Update method      Time    Convergence         Total energy    Change
  ------------------------------------------------------------------------------
     1 OT DIIS     0.80E-01    0.8     0.00194142       -17.1627456795 -1.72E+01
     2 OT DIIS     0.80E-01    0.2     0.00145731       -17.1627938764 -4.82E-05
     3 OT DIIS     0.80E-01    0.2     0.00066481       -17.1628566548 -6.28E-05
     4 OT DIIS     0.80E-01    0.2     0.00021197       -17.1628729262 -1.63E-05
     5 OT DIIS     0.80E-01    0.2     0.00005404       -17.1628748120 -1.89E-06
     6 OT DIIS     0.80E-01    0.2     0.00002581       -17.1628749080 -9.60E-08
     7 OT DIIS     0.80E-01    0.2     0.00001447       -17.1628749252 -1.72E-08
     8 OT DIIS     0.80E-01    0.2     0.00000424       -17.1628749339 -8.64E-09
     9 OT DIIS     0.80E-01    0.2     0.00000149       -17.1628749346 -7.40E-10
    10 OT DIIS     0.80E-01    0.2     0.00000099       -17.1628749347 -4.12E-11
    11 OT DIIS     0.80E-01    0.2     0.00000062       -17.1628749347 -2.79E-11
    12 OT DIIS     0.80E-01    0.2     0.00000020       -17.1628749347 -1.53E-11
    13 OT DIIS     0.80E-01    0.2     0.00000016       -17.1628749347 -6.54E-13
    14 OT DIIS     0.80E-01    0.2     0.00000005       -17.1628749347 -1.08E-12
    15 OT DIIS     0.80E-01    0.3     0.00000002       -17.1628749347 -6.39E-14
    16 OT DIIS     0.80E-01    0.2     0.00000001       -17.1628749347 -1.42E-14
    17 OT DIIS     0.80E-01    0.2     4.8106E-09       -17.1628749347 -3.55E-15

  *** SCF run converged in    17 steps ***


  Electronic density on regular grids:         -7.9999999984        0.0000000016
  Core density on regular grids:                7.9999999997       -0.0000000003
  Total charge density on r-space grids:        0.0000000014
  Total charge density g-space grids:           0.0000000014

  Overlap energy of the core charge distribution:               0.00000001830759
  Self energy of the core charge distribution:                -43.83289054591484
  Core Hamiltonian energy:                                     12.74986184210691
  Hartree energy:                                              18.02667131125651
  Exchange-correlation energy:                                 -4.10651756047297

  Total energy:                                               -17.16287493471679

  outer SCF iter =    1 RMS gradient =   0.48E-08 energy =        -17.1628749347
  outer SCF loop converged in   1 iterations or   17 steps


  Integrated absolute spin density  :                               0.0000000000
  Ideal and single determinant S**2 :                    0.000000      -0.000000

 ENERGY| Total FORCE_EVAL ( QS ) energy [a.u.]:              -17.162874934716800

 -------------------------------------------------------------------------------
 ----                             MULTIGRID INFO                            ----
 -------------------------------------------------------------------------------
 count for grid        1:           2801          cutoff [a.u.]          170.00
 count for grid        2:           1974          cutoff [a.u.]           56.67
 count for grid        3:           1163          cutoff [a.u.]           18.89
 count for grid        4:             24          cutoff [a.u.]            6.30
 total gridlevel count  :           5962

 -------------------------------------------------------------------------------
 -                                                                             -
 -                           R E F E R E N C E S                               -
 -                                                                             -
 -------------------------------------------------------------------------------
 
 CP2K version 9.1, the CP2K developers group (2021).
 CP2K is freely available from https://www.cp2k.org/ .

 Kuehne,Thomas D.; Iannuzzi,Marcella; Del Ben,Mauro;
 Rybkin,Vladimir V.; Seewald,Patrick; Stein,Frederick; Laino,Teodoro;
 Khaliullin,Rustam Z.; Schuett,Ole; Schiffmann,Florian; Golze,Dorothea;
 Wilhelm,Jan; Chulkov,Sergey; Bani-Hashemian,Mohammad Hossein;
 Weber,Valery; Borstnik,Urban; Taillefumier,Mathieu;
 Jakobovits,Alice Shoshana; Lazzaro,Alfio; Pabst,Hans; Mueller,Tiziano;
 Schade,Robert; Guidon,Manuel; Andermatt,Samuel; Holmberg,Nico;
 Schenter,Gregory K.; Hehn,Anna; Bussy,Augustin; Belleflamme,Fabian;
 Tabacchi,Gloria; Gloess,Andreas; Lass,Michael; Bethune,Iain;
 Mundy,Christopher J.; Plessl,Christian; Watkins,Matt;
 VandeVondele,Joost; Krack,Matthias; Hutter,Juerg. 
 The Journal of Chemical Physics, 152 (19), (2020). 
 CP2K: An electronic structure and molecular dynamics software package -
 Quickstep: Efficient and accurate electronic structure calculations.
 https://doi.org/10.1063/5.0007045

 Schuett, Ole; Messmer, Peter; Hutter, Juerg; VandeVondele, Joost. 
 Electronic Structure Calculations on Graphics Processing Units, John
 Wiley & Sons, Ltd, 173-190 (2016). 
 GPU-Accelerated Sparse Matrix-Matrix Multiplication for
 Linear Scaling Density Functional Theory.
 https://doi.org/10.1002/9781118670712.ch8

 Heinecke, A; Henry, G; Hutchinson, M; Pabst, H. 
 Proceedings of Intl. Supercomputing Conference, 981-991 (2016). 
 LIBXSMM: Accelerating Small Matrix Multiplications
 by Runtime Code Generation.
 https://doi.org/10.1109/SC.2016.83

 Borstnik, U; VandeVondele, J; Weber, V; Hutter, J. 
 PARALLEL COMPUTING, 40 (5-6), 47-58 (2014). 
 Sparse matrix multiplication: The distributed block-compressed sparse
 row library.
 https://doi.org/10.1016/j.parco.2014.03.012

 Hutter, J; Iannuzzi, M; Schiffmann, F; VandeVondele, J. 
 WIREs Comput Mol Sci., 4 (1), 15-25 (2014). 
 CP2K: atomistic simulations of condensed matter systems.
 https://doi.org/10.1002/wcms.1159

 Kuhne, TD; Krack, M; Mohamed, FR; Parrinello, M. 
 PHYSICAL REVIEW LETTERS, 98 (6), 066401 (2007). 
 Efficient and accurate Car-Parrinello-like approach to
 Born-Oppenheimer molecular dynamics.
 https://doi.org/10.1103/PhysRevLett.98.066401

 Krack, M. 
 THEORETICAL CHEMISTRY ACCOUNTS, 114 (1-3), 145-152 (2005). 
 Pseudopotentials for H to Kr optimized for gradient-corrected
 exchange-correlation functionals.
 https://doi.org/10.1007/s00214-005-0655-y

 VandeVondele, J; Krack, M; Mohamed, F; Parrinello, M; Chassaing, T;
 Hutter, J. COMPUTER PHYSICS COMMUNICATIONS, 167 (2), 103-128 (2005). 
 QUICKSTEP: Fast and accurate density functional calculations using a
 mixed Gaussian and plane waves approach.
 https://doi.org/10.1016/j.cpc.2004.12.014

 Frigo, M; Johnson, SG. 
 PROCEEDINGS OF THE IEEE, 93 (2), 216-231 (2005). 
 The design and implementation of FFTW3.
 https://doi.org/10.1109/JPROC.2004.840301

 Kolafa, J. 
 JOURNAL OF COMPUTATIONAL CHEMISTRY, 25 (3), 335-342 (2004). 
 Time-reversible always stable predictor-corrector method for
 molecular dynamics of polarizable molecules.
 https://doi.org/10.1002/jcc.10385

 VandeVondele, J; Hutter, J. 
 JOURNAL OF CHEMICAL PHYSICS, 118 (10), 4365-4369 (2003). 
 An efficient orbital transformation method for electronic structure
 calculations.
 https://doi.org/10.1063/1.1543154

 Hartwigsen, C; Goedecker, S; Hutter, J. 
 PHYSICAL REVIEW B, 58 (7), 3641-3662 (1998). 
 Relativistic separable dual-space Gaussian pseudopotentials from H to Rn.
 https://doi.org/10.1103/PhysRevB.58.3641

 Lippert, G; Hutter, J; Parrinello, M. 
 MOLECULAR PHYSICS, 92 (3), 477-487 (1997). 
 A hybrid Gaussian and plane wave density functional scheme.
 https://doi.org/10.1080/002689797170220

 Goedecker, S; Teter, M; Hutter, J. 
 PHYSICAL REVIEW B, 54 (3), 1703-1710 (1996). 
 Separable dual-space Gaussian pseudopotentials.
 https://doi.org/10.1103/PhysRevB.54.1703


 -------------------------------------------------------------------------------
 -                                                                             -
 -                                T I M I N G                                  -
 -                                                                             -
 -------------------------------------------------------------------------------
 SUBROUTINE                       CALLS  ASD         SELF TIME        TOTAL TIME
                                MAXIMUM       AVERAGE  MAXIMUM  AVERAGE  MAXIMUM
 CP2K                                 1  1.0    0.023    0.023   95.096   95.096
 rep_env_calc_e_f                    19  2.0    0.004    0.004   94.877   94.877
 qs_forces                           19  3.0    0.002    0.002   94.873   94.873
 qs_energies                         19  4.0    0.002    0.002   92.074   92.074
 scf_env_do_scf                      19  5.0    0.002    0.002   88.181   88.181
 scf_env_do_scf_inner_loop          331  6.0    0.027    0.027   74.531   74.531
 rebuild_ks_matrix                  350  7.8    0.001    0.001   38.921   38.921
 qs_ks_build_kohn_sham_matrix       350  8.8    0.043    0.043   38.920   38.920
 qs_ks_update_qs_env                350  7.0    0.003    0.003   36.173   36.173
 qs_rho_update_rho                  350  7.1    0.003    0.003   34.201   34.201
 calculate_rho_elec                 700  8.1    4.100    4.100   34.199   34.199
 pw_transfer                       7369 11.2    0.405    0.405   33.635   33.635
 fft_wrap_pw1pw2                   6669 12.2    0.050    0.050   32.352   32.352
 fft_wrap_pw1pw2_170               2469 12.8    2.296    2.296   28.770   28.770
 fft3d_s                           6670 14.2   20.925   20.925   20.943   20.943
 density_rs2pw                      700  9.1    0.035    0.035   20.735   20.735
 sum_up_and_integrate               350  9.8    0.866    0.866   14.841   14.841
 integrate_v_rspace                 700 10.8    0.081    0.081   13.975   13.975
 init_scf_loop                       19  6.0    0.000    0.000   13.637   13.637
 potential_pw2rs                    700 11.8    0.226    0.226   12.745   12.745
 qs_vxc_create                      350  9.8    0.010    0.010   12.105   12.105
 xc_vxc_pw_create                   350 10.8    1.705    1.705   12.095   12.095
 xc_rho_set_and_dset_create         350 11.8    0.018    0.018   10.389   10.389
 qs_scf_new_mos                     331  7.0    0.002    0.002   10.373   10.373
 qs_scf_loop_do_ot                  331  8.0    0.002    0.002   10.371   10.371
 prepare_preconditioner              19  7.0    0.000    0.000   10.157   10.157
 make_preconditioner                 38  8.0    0.000    0.000   10.157   10.157
 ot_scf_mini                        331  9.0    0.009    0.009    9.893    9.893
 xc_functional_eval                 350 12.8    9.877    9.877    9.877    9.877
 dbcsr_multiply_generic           13201 11.9    0.522    0.522    9.437    9.437
 grid_collocate_task_list           700  9.1    9.364    9.364    9.364    9.364
 ot_mini                            331 10.0    0.003    0.003    7.004    7.004
 qs_ot_get_derivative               662 11.0    0.005    0.005    5.851    5.851
 pw_poisson_solve                   350  9.8    1.280    1.280    5.582    5.582
 dbcsr_create_new                149909 14.4    4.472    4.472    5.570    5.570
 make_full_single_inverse            38  9.0    0.002    0.002    4.972    4.972
 pw_gather_s                       3519 13.6    4.879    4.879    4.879    4.879
 arnoldi_generalized_ev              38 10.0    0.001    0.001    4.785    4.785
 dbcsr_add_d                      14861 12.2    0.032    0.032    4.387    4.387
 dbcsr_add_anytype                14861 13.2    1.419    1.419    4.355    4.355
 gev_update_data                     42 11.0    0.000    0.000    4.171    4.171
 make_m2s                         26402 12.9    0.245    0.245    4.137    4.137
 transfer_fm_to_dbcsr                38  9.0    0.000    0.000    3.963    3.963
 copy_fm_to_dbcsr                   613 10.1    0.003    0.003    3.909    3.909
 pw_scatter_s                      3150 14.9    3.837    3.837    3.837    3.837
 copy_fm_to_dbcsr_bc                613 11.1    0.105    0.105    3.794    3.794
 qs_ot_get_derivative_taylor        580 12.0    0.015    0.015    3.681    3.681
 init_scf_run                        19  5.0    0.001    0.001    3.248    3.248
 scf_env_initial_rho_setup           19  6.0    0.000    0.000    3.247    3.247
 pw_integral_ab                     464 10.1    3.192    3.192    3.192    3.192
 wfi_extrapolate                     19  7.0    0.003    0.003    3.030    3.030
 pw_copy                           4626 12.4    2.950    2.950    2.950    2.950
 qs_ks_update_qs_env_forces          19  4.0    0.000    0.000    2.759    2.759
 dbcsr_iterator_start            159381 15.2    2.627    2.627    2.721    2.721
 fft_wrap_pw1pw2_60                1400 13.4    0.245    0.245    2.602    2.602
 make_images                      26402 13.9    0.769    0.769    2.257    2.257
 pw_axpy                           3519 10.0    2.099    2.099    2.099    2.099
 multiply_cannon                  13201 12.9    0.923    0.923    1.939    1.939
 -------------------------------------------------------------------------------

 The number of warnings for this run is : 0
 
 -------------------------------------------------------------------------------
  **** **** ******  **  PROGRAM ENDED AT                 2022-06-06 20:06:26.660
 ***** ** ***  *** **   PROGRAM RAN ON                                    pop-os
 **    ****   ******    PROGRAM RAN BY                             woodrowwilson
 ***** **    ** ** **   PROGRAM PROCESS ID                                  2880
  **** **  *******  **  PROGRAM STOPPED IN /home/woodrowwilson/Documents/Worksho
                                           ps/MSU-DFT-Catalysis-School/1_Gas-Pha
                                           se-Molecules/3a_H2O/2_Vibrational-Mod
                                           es
