 DBCSR| CPU Multiplication driver                                           XSMM
 DBCSR| Multrec recursion limit                                              512
 DBCSR| Multiplication stack size                                           1000
 DBCSR| Maximum elements for images                                    UNLIMITED
 DBCSR| Multiplicative factor virtual images                                   1
 DBCSR| Use multiplication densification                                       T
 DBCSR| Multiplication size stacks                                             3
 DBCSR| Use memory pool for CPU allocation                                     F
 DBCSR| OMP: Current number of threads                                        12
 DBCSR| OMP: Max number of threads                                            12
 DBCSR| Split modifier for TAS multiplication algorithm                  1.0E+00


  **** **** ******  **  PROGRAM STARTED AT               2022-06-15 09:58:31.036
 ***** ** ***  *** **   PROGRAM STARTED ON                                pop-os
 **    ****   ******    PROGRAM STARTED BY                         woodrowwilson
 ***** **    ** ** **   PROGRAM PROCESS ID                                  8094
  **** **  *******  **  PROGRAM STARTED IN /home/woodrowwilson/Documents/Worksho
                                           ps/MSU-DFT-Catalysis-School/Devel/CP2
                                           K/2_Solids/2_CONVERGENCE/1_CUTOFF/cut
                                           off_150Ry

 CP2K| version string:                                          CP2K version 9.1
 CP2K| source code revision number:                                  git:d8d7100
 CP2K| cp2kflags: omp libint fftw3 libxc xsmm plumed2 spglib libvori libbqb     
 CP2K| is freely available from                            https://www.cp2k.org/
 CP2K| Program compiled at                       Wed May 25 08:10:51 PM CDT 2022
 CP2K| Program compiled on                                                pop-os
 CP2K| Program compiled for                                PopOS-x86-64-gfortran
 CP2K| Data directory path            /home/woodrowwilson/Programs/cp2k/9.1/data
 CP2K| Input file name                                                  cp2k.inp

 GLOBAL| Force Environment number                                              1
 GLOBAL| Basis set file name                                           BASIS_SET
 GLOBAL| Potential file name                                      GTH_POTENTIALS
 GLOBAL| MM Potential file name                                     MM_POTENTIAL
 GLOBAL| Coordinate file name                                      __STD_INPUT__
 GLOBAL| Method name                                                        CP2K
 GLOBAL| Project name                                                    Si-bulk
 GLOBAL| Run type                                                   ENERGY_FORCE
 GLOBAL| FFT library                                                       FFTW3
 GLOBAL| Diagonalization library                                       ScaLAPACK
 GLOBAL| Orthonormality check for eigenvectors                          DISABLED
 GLOBAL| Matrix multiplication library                                 ScaLAPACK
 GLOBAL| All-to-all communication in single precision                          F
 GLOBAL| FFTs using library dependent lengths                                  F
 GLOBAL| Grid backend                                                       AUTO
 GLOBAL| Global print level                                               MEDIUM
 GLOBAL| MPI I/O enabled                                                       T
 GLOBAL| Total number of message passing processes                             1
 GLOBAL| Number of threads for this process                                   12
 GLOBAL| This output is from process                                           0
 GLOBAL| Stack size for threads created by OpenMP (OMP_STACKSIZE)        default
 GLOBAL| CPU model name                 Intel(R) Core(TM) i7-9750H CPU @ 2.60GHz
 GLOBAL| CPUID                                                              1002

 MEMORY| system memory details [Kb]
 MEMORY|                        rank 0           min           max       average
 MEMORY| MemTotal             32580248      32580248      32580248      32580248
 MEMORY| MemFree              26366968      26366968      26366968      26366968
 MEMORY| Buffers                150552        150552        150552        150552
 MEMORY| Cached                3825120       3825120       3825120       3825120
 MEMORY| Slab                   273560        273560        273560        273560
 MEMORY| SReclaimable           153980        153980        153980        153980
 MEMORY| MemLikelyFree        30496620      30496620      30496620      30496620


 *** Fundamental physical constants (SI units) ***

 *** Literature: B. J. Mohr and B. N. Taylor,
 ***             CODATA recommended values of the fundamental physical
 ***             constants: 2006, Web Version 5.1
 ***             http://physics.nist.gov/constants

 Speed of light in vacuum [m/s]                             2.99792458000000E+08
 Magnetic constant or permeability of vacuum [N/A**2]       1.25663706143592E-06
 Electric constant or permittivity of vacuum [F/m]          8.85418781762039E-12
 Planck constant (h) [J*s]                                  6.62606896000000E-34
 Planck constant (h-bar) [J*s]                              1.05457162825177E-34
 Elementary charge [C]                                      1.60217648700000E-19
 Electron mass [kg]                                         9.10938215000000E-31
 Electron g factor [ ]                                     -2.00231930436220E+00
 Proton mass [kg]                                           1.67262163700000E-27
 Fine-structure constant                                    7.29735253760000E-03
 Rydberg constant [1/m]                                     1.09737315685270E+07
 Avogadro constant [1/mol]                                  6.02214179000000E+23
 Boltzmann constant [J/K]                                   1.38065040000000E-23
 Atomic mass unit [kg]                                      1.66053878200000E-27
 Bohr radius [m]                                            5.29177208590000E-11

 *** Conversion factors ***

 [u] -> [a.u.]                                              1.82288848426455E+03
 [Angstrom] -> [Bohr] = [a.u.]                              1.88972613288564E+00
 [a.u.] = [Bohr] -> [Angstrom]                              5.29177208590000E-01
 [a.u.] -> [s]                                              2.41888432650478E-17
 [a.u.] -> [fs]                                             2.41888432650478E-02
 [a.u.] -> [J]                                              4.35974393937059E-18
 [a.u.] -> [N]                                              8.23872205491840E-08
 [a.u.] -> [K]                                              3.15774647902944E+05
 [a.u.] -> [kJ/mol]                                         2.62549961709828E+03
 [a.u.] -> [kcal/mol]                                       6.27509468713739E+02
 [a.u.] -> [Pa]                                             2.94210107994716E+13
 [a.u.] -> [bar]                                            2.94210107994716E+08
 [a.u.] -> [atm]                                            2.90362800883016E+08
 [a.u.] -> [eV]                                             2.72113838565563E+01
 [a.u.] -> [Hz]                                             6.57968392072181E+15
 [a.u.] -> [1/cm] (wave numbers)                            2.19474631370540E+05
 [a.u./Bohr**2] -> [1/cm]                                   5.14048714338585E+03
 

 CELL_TOP| Volume [angstrom^3]:                                       163.553171
 CELL_TOP| Vector a [angstrom     5.469     0.000     0.000   |a| =     5.468728
 CELL_TOP| Vector b [angstrom     0.000     5.469     0.000   |b| =     5.468728
 CELL_TOP| Vector c [angstrom     0.000     0.000     5.469   |c| =     5.468728
 CELL_TOP| Angle (b,c), alpha [degree]:                                90.000000
 CELL_TOP| Angle (a,c), beta  [degree]:                                90.000000
 CELL_TOP| Angle (a,b), gamma [degree]:                                90.000000
 CELL_TOP| Requested initial symmetry:                                     CUBIC
 CELL_TOP| Numerically orthorhombic:                                         YES

 GENERATE|  Preliminary Number of Bonds generated:                             0
 GENERATE|  Achieved consistency in connectivity generation.

 CELL| Volume [angstrom^3]:                                           163.553171
 CELL| Vector a [angstrom]:       5.469     0.000     0.000   |a| =     5.468728
 CELL| Vector b [angstrom]:       0.000     5.469     0.000   |b| =     5.468728
 CELL| Vector c [angstrom]:       0.000     0.000     5.469   |c| =     5.468728
 CELL| Angle (b,c), alpha [degree]:                                    90.000000
 CELL| Angle (a,c), beta  [degree]:                                    90.000000
 CELL| Angle (a,b), gamma [degree]:                                    90.000000
 CELL| Requested initial symmetry:                                         CUBIC
 CELL| Numerically orthorhombic:                                             YES

 CELL_REF| Volume [angstrom^3]:                                       163.553171
 CELL_REF| Vector a [angstrom     5.469     0.000     0.000   |a| =     5.468728
 CELL_REF| Vector b [angstrom     0.000     5.469     0.000   |b| =     5.468728
 CELL_REF| Vector c [angstrom     0.000     0.000     5.469   |c| =     5.468728
 CELL_REF| Angle (b,c), alpha [degree]:                                90.000000
 CELL_REF| Angle (a,c), beta  [degree]:                                90.000000
 CELL_REF| Angle (a,b), gamma [degree]:                                90.000000
 CELL_REF| Requested initial symmetry:                                     CUBIC
 CELL_REF| Numerically orthorhombic:                                         YES

 *******************************************************************************
                                    Kpoints
 *******************************************************************************
 BRILLOUIN| K-point scheme                                        Monkhorst-Pack
 BRILLOUIN| K-Point grid                                             1    1    1
 BRILLOUIN| Accuracy in Symmetry determination                      0.100000E-05
 BRILLOUIN| K-Point point group symmetrization                               OFF
 BRILLOUIN| Wavefunction type                                               REAL
 BRILLOUIN| Use full k-point grid     
 BRILLOUIN| List of Kpoints [2 Pi/Bohr]                                        1
 BRILLOUIN| Number           Weight            X              Y              Z
 BRILLOUIN|     1           1.00000        0.00000        0.00000        0.00000
 *******************************************************************************

 *******************************************************************************
 *******************************************************************************
 **                                                                           **
 **     #####                         ##              ##                      **
 **    ##   ##            ##          ##              ##                      **
 **   ##     ##                       ##            ######                    **
 **   ##     ##  ##   ##  ##   #####  ##  ##   ####   ##    #####    #####    **
 **   ##     ##  ##   ##  ##  ##      ## ##   ##      ##   ##   ##  ##   ##   **
 **   ##  ## ##  ##   ##  ##  ##      ####     ###    ##   ######   ######    **
 **    ##  ###   ##   ##  ##  ##      ## ##      ##   ##   ##       ##        **
 **     #######   #####   ##   #####  ##  ##  ####    ##    #####   ##        **
 **           ##                                                    ##        **
 **                                                                           **
 **                                                ... make the atoms dance   **
 **                                                                           **
 **            Copyright (C) by CP2K developers group (2000-2021)             **
 **                      J. Chem. Phys. 152, 194103 (2020)                    **
 **                                                                           **
 *******************************************************************************

 DFT| Spin unrestricted (spin-polarized) Kohn-Sham calculation               UKS
 DFT| Multiplicity                                                             1
 DFT| Number of spin states                                                    2
 DFT| Charge                                                                   0
 DFT| Self-interaction correction (SIC)                                       NO
 DFT| Cutoffs: density                                              1.000000E-10
 DFT|          gradient                                             1.000000E-10
 DFT|          tau                                                  1.000000E-10
 DFT|          cutoff_smoothing_range                               0.000000E+00
 DFT| XC density smoothing                                                  NONE
 DFT| XC derivatives                                                          PW
 FUNCTIONAL| ROUTINE=NEW
 FUNCTIONAL| PADE:
 FUNCTIONAL| S. Goedecker, M. Teter and J. Hutter, Phys. Rev. B 54, 1703 (1996) 

 QS| Method:                                                                 GPW
 QS| Density plane wave grid type                        NON-SPHERICAL FULLSPACE
 QS| Number of grid levels:                                                    4
 QS| Density cutoff [a.u.]:                                                 75.0
 QS| Multi grid cutoff [a.u.]: 1) grid level                                75.0
 QS|                           2) grid level                                25.0
 QS|                           3) grid level                                 8.3
 QS|                           4) grid level                                 2.8
 QS| Grid level progression factor:                                          3.0
 QS| Relative density cutoff [a.u.]:                                        30.0
 QS| Interaction thresholds: eps_pgf_orb:                                1.0E-05
 QS|                         eps_filter_matrix:                          0.0E+00
 QS|                         eps_core_charge:                            1.0E-12
 QS|                         eps_rho_gspace:                             1.0E-10
 QS|                         eps_rho_rspace:                             1.0E-10
 QS|                         eps_gvg_rspace:                             1.0E-05
 QS|                         eps_ppl:                                    1.0E-02
 QS|                         eps_ppnl:                                   1.0E-07


 ATOMIC KIND INFORMATION

  1. Atomic kind: Si                                    Number of atoms:       8

     Orbital Basis Set                                             DZVP-GTH-PADE

       Number of orbital shell sets:                                           2
       Number of orbital shells:                                               5
       Number of primitive Cartesian functions:                                5
       Number of Cartesian basis functions:                                   14
       Number of spherical basis functions:                                   13
       Norm type:                                                              2

       Normalised Cartesian orbitals:

                        Set   Shell   Orbital            Exponent    Coefficient

                          1       1    3s                1.203242       0.269412
                                                         0.468841      -0.102290
                                                         0.167986      -0.147195
                                                         0.057562      -0.015996

                          1       2    4s                1.203242       0.000000
                                                         0.468841       0.000000
                                                         0.167986       0.000000
                                                         0.057562       0.083755

                          1       3    4px               1.203242       0.085242
                                                         0.468841      -0.143473
                                                         0.167986      -0.083408
                                                         0.057562      -0.014565
                          1       3    4py               1.203242       0.085242
                                                         0.468841      -0.143473
                                                         0.167986      -0.083408
                                                         0.057562      -0.014565
                          1       3    4pz               1.203242       0.085242
                                                         0.468841      -0.143473
                                                         0.167986      -0.083408
                                                         0.057562      -0.014565

                          1       4    5px               1.203242       0.000000
                                                         0.468841       0.000000
                                                         0.167986       0.000000
                                                         0.057562       0.040189
                          1       4    5py               1.203242       0.000000
                                                         0.468841       0.000000
                                                         0.167986       0.000000
                                                         0.057562       0.040189
                          1       4    5pz               1.203242       0.000000
                                                         0.468841       0.000000
                                                         0.167986       0.000000
                                                         0.057562       0.040189

                          2       1    3dx2              0.450000       0.406941
                          2       1    3dxy              0.450000       0.704842
                          2       1    3dxz              0.450000       0.704842
                          2       1    3dy2              0.450000       0.406941
                          2       1    3dyz              0.450000       0.704842
                          2       1    3dz2              0.450000       0.406941

       Atomic covalent radius [Angstrom]:                                  1.110

       Atomic van der Waals radius [Angstrom]:                             2.100

     GTH Potential information for                                   GTH-PADE-q4

       Description:                       Goedecker-Teter-Hutter pseudopotential
                                           Goedecker et al., PRB 54, 1703 (1996)
                                          Hartwigsen et al., PRB 58, 3641 (1998)
                                                      Krack, TCA 114, 145 (2005)

       Gaussian exponent of the core charge distribution:               2.582645
       Electronic configuration (s p d ...):                               2   2

       Parameters of the local part of the GTH pseudopotential:

                          rloc        C1          C2          C3          C4
                        0.440000   -7.336103

       Parameters of the non-local part of the GTH pseudopotential:

                   l      r(l)      h(i,j,l)

                   0    0.422738    5.906928   -1.261894
                                   -1.261894    3.258196
                   1    0.484278    2.727013


 MOLECULE KIND INFORMATION


 All atoms are their own molecule, skipping detailed information


 TOTAL NUMBERS AND MAXIMUM NUMBERS

  Total number of            - Atomic kinds:                                   1
                             - Atoms:                                          8
                             - Shell sets:                                    16
                             - Shells:                                        40
                             - Primitive Cartesian functions:                 40
                             - Cartesian basis functions:                    112
                             - Spherical basis functions:                    104

  Maximum angular momentum of- Orbital basis functions:                        2
                             - Local part of the GTH pseudopotential:          0
                             - Non-local part of the GTH pseudopotential:      2


 MODULE QUICKSTEP:  ATOMIC COORDINATES IN angstrom

 Atom  Kind  Element       X           Y           Z          Z(eff)       Mass
    1   1 Si  14       0.000000    0.000000    2.734364       4.0000     28.0855
    2   1 Si  14       1.367182    1.367182    4.101546       4.0000     28.0855
    3   1 Si  14       0.000000    2.734364    0.000000       4.0000     28.0855
    4   1 Si  14       4.101546    1.367182    1.367182       4.0000     28.0855
    5   1 Si  14       1.367182    4.101546    1.367182       4.0000     28.0855
    6   1 Si  14       4.101546    4.101546    4.101546       4.0000     28.0855
    7   1 Si  14       2.734364    0.000000    0.000000       4.0000     28.0855
    8   1 Si  14       2.734364    2.734364    2.734364       4.0000     28.0855




 SCF PARAMETERS         Density guess:                                    ATOMIC
                        --------------------------------------------------------
                        max_scf:                                              50
                        max_scf_history:                                       0
                        max_diis:                                              4
                        --------------------------------------------------------
                        eps_scf:                                        1.00E-05
                        eps_scf_history:                                0.00E+00
                        eps_diis:                                       1.00E-01
                        eps_eigval:                                     1.00E-05
                        --------------------------------------------------------
                        level_shift [a.u.]:                                 0.00
                        added MOs                                        10   10
                        --------------------------------------------------------
                        Mixing method:                            BROYDEN_MIXING
                                                charge density mixing in g-space
                        --------------------------------------------------------
                        Smear method:                                FERMI_DIRAC
                        Electronic temperature [K]:                        300.0
                        Electronic temperature [a.u.]:                  9.50E-04
                        Accuracy threshold:                             1.00E-10
                        --------------------------------------------------------
                        Outer loop SCF in use 
                        No variables optimised in outer loop
                        eps_scf                                         1.00E-05
                        max_scf                                               50
                        No outer loop optimization
                        step_size                                       5.00E-01

 PW_GRID| Information for grid number                                          1
 PW_GRID| Cutoff [a.u.]                                                     75.0
 PW_GRID| spherical cutoff:                                                   NO
 PW_GRID|   Bounds   1            -22      22                Points:          45
 PW_GRID|   Bounds   2            -22      22                Points:          45
 PW_GRID|   Bounds   3            -22      22                Points:          45
 PW_GRID| Volume element (a.u.^3)  0.1211E-01     Volume (a.u.^3)      1103.7115
 PW_GRID| Grid span                                                    FULLSPACE

 PW_GRID| Information for grid number                                          2
 PW_GRID| Number of the reference grid                                         1
 PW_GRID| Cutoff [a.u.]                                                     25.0
 PW_GRID| spherical cutoff:                                                   NO
 PW_GRID|   Bounds   1            -12      11                Points:          24
 PW_GRID|   Bounds   2            -12      11                Points:          24
 PW_GRID|   Bounds   3            -12      11                Points:          24
 PW_GRID| Volume element (a.u.^3)  0.7984E-01     Volume (a.u.^3)      1103.7115
 PW_GRID| Grid span                                                    FULLSPACE

 PW_GRID| Information for grid number                                          3
 PW_GRID| Number of the reference grid                                         1
 PW_GRID| Cutoff [a.u.]                                                      8.3
 PW_GRID| spherical cutoff:                                                   NO
 PW_GRID|   Bounds   1             -7       7                Points:          15
 PW_GRID|   Bounds   2             -7       7                Points:          15
 PW_GRID|   Bounds   3             -7       7                Points:          15
 PW_GRID| Volume element (a.u.^3)  0.3270         Volume (a.u.^3)      1103.7115
 PW_GRID| Grid span                                                    FULLSPACE

 PW_GRID| Information for grid number                                          4
 PW_GRID| Number of the reference grid                                         1
 PW_GRID| Cutoff [a.u.]                                                      2.8
 PW_GRID| spherical cutoff:                                                   NO
 PW_GRID|   Bounds   1             -4       3                Points:           8
 PW_GRID|   Bounds   2             -4       3                Points:           8
 PW_GRID|   Bounds   3             -4       3                Points:           8
 PW_GRID| Volume element (a.u.^3)   2.156         Volume (a.u.^3)      1103.7115
 PW_GRID| Grid span                                                    FULLSPACE

 POISSON| Solver                                                        PERIODIC
 POISSON| Periodicity                                                        XYZ

 RS_GRID| Information for grid number                                          1
 RS_GRID|   Bounds   1            -22      22                Points:          45
 RS_GRID|   Bounds   2            -22      22                Points:          45
 RS_GRID|   Bounds   3            -22      22                Points:          45

 RS_GRID| Information for grid number                                          2
 RS_GRID|   Bounds   1            -12      11                Points:          24
 RS_GRID|   Bounds   2            -12      11                Points:          24
 RS_GRID|   Bounds   3            -12      11                Points:          24

 RS_GRID| Information for grid number                                          3
 RS_GRID|   Bounds   1             -7       7                Points:          15
 RS_GRID|   Bounds   2             -7       7                Points:          15
 RS_GRID|   Bounds   3             -7       7                Points:          15

 RS_GRID| Information for grid number                                          4
 RS_GRID|   Bounds   1             -4       3                Points:           8
 RS_GRID|   Bounds   2             -4       3                Points:           8
 RS_GRID|   Bounds   3             -4       3                Points:           8

 Spin 1

 Number of electrons:                                                         16
 Number of occupied orbitals:                                                 16
 Number of molecular orbitals:                                                26

 Spin 2

 Number of electrons:                                                         16
 Number of occupied orbitals:                                                 16
 Number of molecular orbitals:                                                26

 Number of orbital functions:                                                104
 Number of independent orbital functions:                                    104

 Extrapolation method: initial_guess

 Atomic guess: The first density matrix is obtained in terms of atomic orbitals
               and electronic configurations assigned to each atomic kind

 Guess for atomic kind: Si

 Electronic structure
    Total number of core electrons                                         10.00
    Total number of valence electrons                                       4.00
    Total number of electrons                                              14.00
    Multiplicity                                                   not specified
    S   [  2.00  2.00] 2.00
    P   [  6.00] 2.00


 *******************************************************************************
                  Iteration          Convergence                     Energy [au]
 *******************************************************************************
                          1        0.477818E-01                  -3.696314527081
                          2        0.189810E-01                  -3.699339723852
                          3        0.662919E-04                  -3.699923443634
                          4        0.544681E-05                  -3.699923449509
                          5        0.255737E-05                  -3.699923449541
                          6        0.166372E-05                  -3.699923449546
                          7        0.602932E-08                  -3.699923449550

 Energy components [Hartree]           Total Energy ::           -3.699923449550
                                        Band Energy ::           -1.012730138233
                                     Kinetic Energy ::            1.397012970651
                                   Potential Energy ::           -5.096936420201
                                      Virial (-V/T) ::            3.648453183527
                                        Core Energy ::           -5.703543500418
                                          XC Energy ::           -0.980691627508
                                     Coulomb Energy ::            2.984311678376
                       Total Pseudopotential Energy ::           -7.145740091279
                       Local Pseudopotential Energy ::           -7.987909025588
                    Nonlocal Pseudopotential Energy ::            0.842168934309
                                        Confinement ::            0.451836202095

 Orbital energies  State     L     Occupation   Energy[a.u.]          Energy[eV]

                       1     0          2.000      -0.378230          -10.292158

                       1     1          2.000      -0.128135           -3.486736


 Total Electron Density at R=0:                                         0.000056

 Spin 1
 Re-scaling the density matrix to get the right number of electrons for spin 1
                  # Electrons              Trace(P)               Scaling factor
                           16                16.000                        1.000

 Spin 2
 Re-scaling the density matrix to get the right number of electrons for spin 2
                  # Electrons              Trace(P)               Scaling factor
                           16                16.000                        1.000


 SCF WAVEFUNCTION OPTIMIZATION

  Step     Update method      Time    Convergence         Total energy    Change
  ------------------------------------------------------------------------------
     1 NoMix/Diag. 0.40E+00    0.4     0.68799169       -32.2029535790 -3.22E+01
     2 Broy./Diag. 0.40E+00    0.8     0.03144704       -30.8883941527  1.31E+00
     3 Broy./Diag. 0.40E+00    0.7     0.05297591       -31.1545833358 -2.66E-01
     4 Broy./Diag. 0.40E+00    0.8     0.00141624       -31.3383306711 -1.84E-01
     5 Broy./Diag. 0.40E+00    0.8     0.00144064       -31.3047900689  3.35E-02
     6 Broy./Diag. 0.40E+00    0.8     0.00004526       -31.3019377015  2.85E-03
     7 Broy./Diag. 0.40E+00    0.7     0.00004719       -31.3028406952 -9.03E-04
     8 Broy./Diag. 0.40E+00    0.9     0.00000089       -31.3029780528 -1.37E-04

  *** SCF run converged in     8 steps ***


  Electronic density on regular grids:        -32.0000000005       -0.0000000005
  Core density on regular grids:               31.9999999940       -0.0000000060
  Total charge density on r-space grids:       -0.0000000065
  Total charge density g-space grids:          -0.0000000065

  Overlap energy of the core charge distribution:               0.00000000003667
  Self energy of the core charge distribution:                -82.06393942512820
  Core Hamiltonian energy:                                     17.92542720341650
  Hartree energy:                                              42.50384986188844
  Exchange-correlation energy:                                 -9.66830773365522
  Electronic entropic energy:                                  -0.00000795939167
  Fermi energy:                                                 0.20214651482695

  Total energy:                                               -31.30297805276147

  outer SCF iter =    1 RMS gradient =   0.89E-06 energy =        -31.3029780528
  outer SCF loop converged in   1 iterations or    8 steps


  Integrated absolute spin density  :                               0.0000000000

 *** WARNING in qs_scf_post_gpw.F:1764 :: Spin contamination estimate not ***
 *** implemented for k-points.                                            ***


 ENERGY| Total FORCE_EVAL ( QS ) energy [a.u.]:              -31.303021015214245

 -------------------------------------------------------------------------------
 -                                                                             -
 -                                DBCSR STATISTICS                             -
 -                                                                             -
 -------------------------------------------------------------------------------
 COUNTER                                    TOTAL       BLAS       SMM       ACC
 flops inhomo. stacks                           0       0.0%      0.0%      0.0%
 flops total                         0.000000E+00       0.0%      0.0%      0.0%
 flops max/rank                      0.000000E+00       0.0%      0.0%      0.0%
 matmuls inhomo. stacks                         0       0.0%      0.0%      0.0%
 matmuls total                                  0       0.0%      0.0%      0.0%
 number of processed stacks                     0       0.0%      0.0%      0.0%
 average stack size                                     0.0       0.0       0.0
 marketing flops                     0.000000E+00
 -------------------------------------------------------------------------------

 -------------------------------------------------------------------------------
 -                                                                             -
 -                                GRID STATISTICS                              -
 -                                                                             -
 -------------------------------------------------------------------------------
 LP    KERNEL             BACKEND                              COUNT     PERCENT
 2     collocate ortho    REF                                 186336      36.91%
 2     integrate ortho    REF                                 165632      32.81%
 3     collocate ortho    REF                                  62208      12.32%
 3     integrate ortho    REF                                  55296      10.95%
 5     integrate ortho    REF                                  20704       4.10%
 6     integrate ortho    REF                                   6912       1.37%
 4     collocate ortho    REF                                   3888       0.77%
 4     integrate ortho    REF                                   3456       0.68%
 7     integrate ortho    REF                                    432       0.09%
 0     collocate general  REF                                      8       0.00%
 3     integrate general  REF                                      8       0.00%
 -------------------------------------------------------------------------------

 MEMORY| Estimated peak process memory [MiB]                                 527

 -------------------------------------------------------------------------------
 ----                             MULTIGRID INFO                            ----
 -------------------------------------------------------------------------------
 count for grid        1:           3340          cutoff [a.u.]           75.00
 count for grid        2:           6220          cutoff [a.u.]           25.00
 count for grid        3:           5672          cutoff [a.u.]            8.33
 count for grid        4:             16          cutoff [a.u.]            2.78
 total gridlevel count  :          15248

 -------------------------------------------------------------------------------
 -                                                                             -
 -                           R E F E R E N C E S                               -
 -                                                                             -
 -------------------------------------------------------------------------------
 
 CP2K version 9.1, the CP2K developers group (2021).
 CP2K is freely available from https://www.cp2k.org/ .

 Kuehne,Thomas D.; Iannuzzi,Marcella; Del Ben,Mauro;
 Rybkin,Vladimir V.; Seewald,Patrick; Stein,Frederick; Laino,Teodoro;
 Khaliullin,Rustam Z.; Schuett,Ole; Schiffmann,Florian; Golze,Dorothea;
 Wilhelm,Jan; Chulkov,Sergey; Bani-Hashemian,Mohammad Hossein;
 Weber,Valery; Borstnik,Urban; Taillefumier,Mathieu;
 Jakobovits,Alice Shoshana; Lazzaro,Alfio; Pabst,Hans; Mueller,Tiziano;
 Schade,Robert; Guidon,Manuel; Andermatt,Samuel; Holmberg,Nico;
 Schenter,Gregory K.; Hehn,Anna; Bussy,Augustin; Belleflamme,Fabian;
 Tabacchi,Gloria; Gloess,Andreas; Lass,Michael; Bethune,Iain;
 Mundy,Christopher J.; Plessl,Christian; Watkins,Matt;
 VandeVondele,Joost; Krack,Matthias; Hutter,Juerg. 
 The Journal of Chemical Physics, 152 (19), (2020). 
 CP2K: An electronic structure and molecular dynamics software package -
 Quickstep: Efficient and accurate electronic structure calculations.
 https://doi.org/10.1063/5.0007045

 Togo, Atsushi; Tanaka, Isao. arXiv, 1808.01590 (2018). 
 Spglib : a software library for crystal symmetry search.
 https://doi.org/xxx

 Schuett, Ole; Messmer, Peter; Hutter, Juerg; VandeVondele, Joost. 
 Electronic Structure Calculations on Graphics Processing Units, John
 Wiley & Sons, Ltd, 173-190 (2016). 
 GPU-Accelerated Sparse Matrix-Matrix Multiplication for
 Linear Scaling Density Functional Theory.
 https://doi.org/10.1002/9781118670712.ch8

 Heinecke, A; Henry, G; Hutchinson, M; Pabst, H. 
 Proceedings of Intl. Supercomputing Conference, 981-991 (2016). 
 LIBXSMM: Accelerating Small Matrix Multiplications
 by Runtime Code Generation.
 https://doi.org/10.1109/SC.2016.83

 Borstnik, U; VandeVondele, J; Weber, V; Hutter, J. 
 PARALLEL COMPUTING, 40 (5-6), 47-58 (2014). 
 Sparse matrix multiplication: The distributed block-compressed sparse
 row library.
 https://doi.org/10.1016/j.parco.2014.03.012

 Hutter, J; Iannuzzi, M; Schiffmann, F; VandeVondele, J. 
 WIREs Comput Mol Sci., 4 (1), 15-25 (2014). 
 CP2K: atomistic simulations of condensed matter systems.
 https://doi.org/10.1002/wcms.1159

 Krack, M. 
 THEORETICAL CHEMISTRY ACCOUNTS, 114 (1-3), 145-152 (2005). 
 Pseudopotentials for H to Kr optimized for gradient-corrected
 exchange-correlation functionals.
 https://doi.org/10.1007/s00214-005-0655-y

 VandeVondele, J; Krack, M; Mohamed, F; Parrinello, M; Chassaing, T;
 Hutter, J. COMPUTER PHYSICS COMMUNICATIONS, 167 (2), 103-128 (2005). 
 QUICKSTEP: Fast and accurate density functional calculations using a
 mixed Gaussian and plane waves approach.
 https://doi.org/10.1016/j.cpc.2004.12.014

 Frigo, M; Johnson, SG. 
 PROCEEDINGS OF THE IEEE, 93 (2), 216-231 (2005). 
 The design and implementation of FFTW3.
 https://doi.org/10.1109/JPROC.2004.840301

 Hartwigsen, C; Goedecker, S; Hutter, J. 
 PHYSICAL REVIEW B, 58 (7), 3641-3662 (1998). 
 Relativistic separable dual-space Gaussian pseudopotentials from H to Rn.
 https://doi.org/10.1103/PhysRevB.58.3641

 Lippert, G; Hutter, J; Parrinello, M. 
 MOLECULAR PHYSICS, 92 (3), 477-487 (1997). 
 A hybrid Gaussian and plane wave density functional scheme.
 https://doi.org/10.1080/002689797170220

 Goedecker, S; Teter, M; Hutter, J. 
 PHYSICAL REVIEW B, 54 (3), 1703-1710 (1996). 
 Separable dual-space Gaussian pseudopotentials.
 https://doi.org/10.1103/PhysRevB.54.1703


 -------------------------------------------------------------------------------
 -                                                                             -
 -                                T I M I N G                                  -
 -                                                                             -
 -------------------------------------------------------------------------------
 SUBROUTINE                       CALLS  ASD         SELF TIME        TOTAL TIME
                                MAXIMUM       AVERAGE  MAXIMUM  AVERAGE  MAXIMUM
 CP2K                                 1  1.0    0.025    0.025    8.863    8.863
 qs_forces                            1  2.0    0.001    0.001    8.779    8.779
 qs_energies                          1  3.0    0.002    0.002    7.561    7.561
 scf_env_do_scf                       1  4.0    0.000    0.000    6.404    6.404
 scf_env_do_scf_inner_loop            8  5.0    0.004    0.004    6.404    6.404
 rebuild_ks_matrix                    9  6.7    0.000    0.000    2.503    2.503
 qs_ks_build_kohn_sham_matrix         9  7.7    0.008    0.008    2.503    2.503
 sum_up_and_integrate                 9  8.7    0.004    0.004    2.274    2.274
 integrate_v_rspace                  18  9.7    0.029    0.029    2.271    2.271
 grid_integrate_task_list            18 10.7    2.180    2.180    2.180    2.180
 qs_rho_update_rho                    9  6.0    0.000    0.000    2.177    2.177
 calculate_rho_elec                  18  7.0    0.026    0.026    2.177    2.177
 grid_collocate_task_list            18  8.0    2.066    2.066    2.066    2.066
 qs_ks_update_qs_env                  8  6.0    0.000    0.000    1.986    1.986
 qs_scf_new_mos_kp                    8  6.0    0.000    0.000    1.551    1.551
 do_general_diag_kp                   8  7.0    0.001    0.001    1.551    1.551
 kpoint_density_transform             9  7.7    0.003    0.003    0.962    0.962
 dbcsr_create_new                  9654  7.6    0.434    0.434    0.773    0.773
 cp_dbcsr_alloc_block_from_nbl     2400  5.6    0.386    0.386    0.716    0.716
 qs_ks_update_qs_env_forces           1  3.0    0.000    0.000    0.625    0.625
 build_core_hamiltonian_matrix_       1  3.0    0.002    0.002    0.592    0.592
 cp_fm_geeig                         16  8.0    0.002    0.002    0.570    0.570
 gspace_mixing                        7  6.0    0.012    0.012    0.437    0.437
 cp_fm_cholesky_decompose            16  9.0    0.404    0.404    0.404    0.404
 init_scf_run                         1  4.0    0.000    0.000    0.365    0.365
 scf_env_initial_rho_setup            1  5.0    0.000    0.000    0.365    0.365
 qs_energies_init_hamiltonians        1  4.0    0.000    0.000    0.348    0.348
 dbcsr_make_index_exist            9654  8.6    0.337    0.337    0.337    0.337
 dbcsr_reserve_blocks              2418  6.6    0.323    0.323    0.328    0.328
 dbcsr_add_d                       2197  4.6    0.003    0.003    0.272    0.272
 dbcsr_add_anytype                 2197  5.6    0.029    0.029    0.269    0.269
 write_kpoints_restart                8  6.0    0.002    0.002    0.232    0.232
 build_core_hamiltonian_matrix        1  5.0    0.001    0.001    0.221    0.221
 self_consistency_check               8  6.0    0.005    0.005    0.212    0.212
 copy_dbcsr_to_fm                   370  7.1    0.005    0.005    0.197    0.197
 dbcsr_copy                        6422  7.1    0.129    0.129    0.192    0.192
 dbcsr_set                         8196  7.4    0.010    0.010    0.190    0.190
 build_core_ppnl_forces               1  4.0    0.104    0.104    0.190    0.190
 dbcsr_zero                        8196  8.4    0.181    0.181    0.181    0.181
 -------------------------------------------------------------------------------

 The number of warnings for this run is : 1
 
 -------------------------------------------------------------------------------
  **** **** ******  **  PROGRAM ENDED AT                 2022-06-15 09:58:40.118
 ***** ** ***  *** **   PROGRAM RAN ON                                    pop-os
 **    ****   ******    PROGRAM RAN BY                             woodrowwilson
 ***** **    ** ** **   PROGRAM PROCESS ID                                  8094
  **** **  *******  **  PROGRAM STOPPED IN /home/woodrowwilson/Documents/Worksho
                                           ps/MSU-DFT-Catalysis-School/Devel/CP2
                                           K/2_Solids/2_CONVERGENCE/1_CUTOFF/cut
                                           off_150Ry
